VARIABLES = X, Y
ZONE I=68, J=106, F=FEPOINT
-1.000000000000000e+000 -7.285714285714282e-001
-1.000000000000000e+000 -1.000000000000000e+000
-7.000000000000000e-001 -1.000000000000000e+000
-7.292877422704942e-001 -6.282946266312072e-001
-1.000000000000000e+000 -4.523809523809521e-001
-5.068223341828677e-001 -7.746098260350973e-001
-7.294568592693832e-001 -3.229286805095173e-001
-4.047619047619048e-001 -1.000000000000000e+000
-4.379205944848736e-001 -4.914033004288972e-001
-1.000000000000000e+000 -1.714285714285713e-001
-2.607732756333439e-001 -7.534135580531091e-001
-4.692139302395028e-001 -1.680382386841373e-001
-7.380040859111409e-001 -2.620516121915771e-002
-1.142857142857143e-001 -1.000000000000000e+000
-1.244924668580945e-001 -5.057734428507350e-001
-2.417875392218325e-001 -2.867978901834896e-001
-1.000000000000000e+000 1.142857142857143e-001
2.535009946462537e-002 -7.485782301641932e-001
-4.811422560701824e-001 1.280138885396377e-001
-1.833254900750342e-001 -8.961689136460838e-003
-7.457498965652635e-001 2.626822115546671e-001
8.776039577879119e-003 -2.595159109458399e-001
1.714285714285713e-001 -1.000000000000000e+000
1.617956762190292e-001 -4.943639814603204e-001
-1.000000000000000e+000 4.047619047619048e-001
-2.649932622115350e-001 2.625517676959448e-001
-4.823302236672027e-001 4.460162521758832e-001
3.194176578518312e-001 -7.374096625841324e-001
1.800614788632816e-001 5.568505872529661e-003
-1.199379539938542e-002 2.561708096994602e-001
-7.710326459479331e-001 5.090830750082731e-001
2.619987387101271e-001 -2.656690587149278e-001
4.523809523809521e-001 -1.000000000000000e+000
4.803813084030844e-001 -4.480535241648887e-001
-1.642528648869046e-001 4.918039155431895e-001
-1.000000000000000e+000 7.000000000000000e-001
-6.259818292061091e-001 7.318754374099571e-001
2.388747747731284e-001 2.837678568732379e-001
6.252080282941438e-001 -7.326871459429342e-001
4.786738740129343e-001 -1.305864854883989e-001
-3.206470348018728e-001 7.361242060363552e-001
1.220925332047710e-001 5.032719351077886e-001
4.668103019148262e-001 1.655321035360435e-001
7.285714285714282e-001 -1.000000000000000e+000
-7.285714285714282e-001 1.000000000000000e+000
7.701288330510349e-001 -5.100308589719382e-001
7.444957978065068e-001 -2.639950286167443e-001
-2.670471807223091e-002 7.471633988503764e-001
-4.523809523809521e-001 1.000000000000000e+000
4.360967466279977e-001 4.894984460661956e-001
-1.000000000000000e+000 1.000000000000000e+000
1.000000000000000e+000 -7.000000000000000e-001
7.366497028740765e-001 2.478947405430670e-002
-1.714285714285713e-001 1.000000000000000e+000
2.595953243958058e-001 7.521826768810779e-001
7.283019342378956e-001 3.217208349822440e-001
1.000000000000000e+000 -4.047619047619048e-001
1.000000000000000e+000 -1.000000000000000e+000
1.000000000000000e+000 -1.142857142857143e-001
1.142857142857143e-001 1.000000000000000e+000
5.060113433706501e-001 7.737591103072339e-001
7.285951059854788e-001 6.275681641643769e-001
1.000000000000000e+000 1.714285714285713e-001
4.047619047619048e-001 1.000000000000000e+000
1.000000000000000e+000 4.523809523809521e-001
7.000000000000000e-001 1.000000000000000e+000
1.000000000000000e+000 7.285714285714282e-001
1.000000000000000e+000 1.000000000000000e+000
   1    2    3     3 
   1    3    4     4 
   1    4    5     5 
   3    6    4     4 
   7    5    4     4 
   3    8    6     6 
   9    4    6     6 
   7    4    9     9 
   7   10    5     5 
   6    8   11    11 
   9    6   11    11 
   7    9   12    12 
   7   13   10    10 
  12   13    7     7 
   8   14   11    11 
   9   11   15    15 
  16   12    9     9 
  16    9   15    15 
  10   13   17    17 
  18   11   14    14 
  15   11   18    18 
  19   13   12    12 
  16   20   12    12 
  21   17   13    13 
  19   12   20    20 
  19   21   13    13 
  16   15   22    22 
  18   14   23    23 
  15   18   24    24 
  16   22   20    20 
  15   24   22    22 
  21   25   17    17 
  20   26   19    19 
  27   21   19    19 
  18   23   28    28 
  24   18   28    28 
  29   20   22    22 
  26   27   19    19 
  20   30   26    26 
  31   25   21    21 
  32   22   24    24 
  27   31   21    21 
  29   30   20    20 
  32   29   22    22 
  28   23   33    33 
  28   34   24    24 
  26   35   27    27 
  32   24   34    34 
  26   30   35    35 
  36   25   31    31 
  37   31   27    27 
  38   30   29    29 
  39   28   33    33 
  34   28   39    39 
  32   40   29    29 
  41   27   35    35 
  36   31   37    37 
  41   37   27    27 
  32   34   40    40 
  35   30   42    42 
  38   42   30    30 
  38   29   43    43 
  40   43   29    29 
  39   33   44    44 
  37   45   36    36 
  34   39   46    46 
  40   34   47    47 
  35   48   41    41 
  42   48   35    35 
  34   46   47    47 
  41   49   37    37 
  38   50   42    42 
  37   49   45    45 
  38   43   50    50 
  36   45   51    51 
  39   44   52    52 
  40   53   43    43 
  39   52   46    46 
  40   47   53    53 
  41   48   54    54 
  41   54   49    49 
  42   55   48    48 
  42   50   55    55 
  56   50   43    43 
  46   57   47    47 
  56   43   53    53 
  52   44   58    58 
  46   52   57    57 
  53   47   59    59 
  48   60   54    54 
  57   59   47    47 
  55   60   48    48 
  50   61   55    55 
  50   56   62    62 
  53   63   56    56 
  50   62   61    61 
  53   59   63    63 
  55   64   60    60 
  61   64   55    55 
  62   56   65    65 
  56   63   65    65 
  62   66   61    61 
  61   66   64    64 
  62   65   67    67 
  62   67   66    66 
  66   67   68    68 
