VARIABLES = X, Y
ZONE I=140, J=238, F=FEPOINT
-1.000000000000000e+000 -1.000000000000000e+000
-8.699203548543760e-001 -8.707071603779362e-001
-1.000000000000000e+000 -7.999999999999998e-001
-8.000000000000000e-001 -1.000000000000000e+000
-8.396535178109983e-001 -7.116281510488623e-001
-7.095872052673874e-001 -8.419284195381788e-001
-1.000000000000000e+000 -5.999999999999999e-001
-6.000000000000000e-001 -1.000000000000000e+000
-6.354217751231103e-001 -6.418060826027805e-001
-8.219322714553984e-001 -5.153018537856945e-001
-5.116038396498638e-001 -8.274411217579521e-001
-1.000000000000000e+000 -3.999999999999999e-001
-3.999999999999999e-001 -1.000000000000000e+000
-6.430513002851274e-001 -4.286559288879042e-001
-4.162760667901796e-001 -6.542279640400264e-001
-8.115049056547026e-001 -3.095401707763064e-001
-5.029623219152515e-001 -5.132769689847865e-001
-3.071342771042919e-001 -8.266823635009084e-001
-1.000000000000000e+000 -2.000000000000000e-001
-5.932140208283510e-001 -2.145886536762353e-001
-2.000000000000000e-001 -1.000000000000000e+000
-4.891984477570978e-001 -3.768593000712211e-001
-3.275126780202154e-001 -4.643781521431185e-001
-2.104856057153586e-001 -6.515706022455727e-001
-8.080531192622264e-001 -9.833652085220163e-002
-1.034573812709435e-001 -8.268914461823212e-001
-3.749344071701819e-001 -2.626258928703803e-001
-1.000000000000000e+000 0.000000000000000e+000
-6.226912502637046e-001 2.317603869252570e-002
0.000000000000000e+000 -1.000000000000000e+000
-1.042800543621028e-001 -4.816902147851214e-001
-3.969204682335309e-001 -4.826031070780496e-002
-1.898541293097442e-001 -3.094159258893519e-001
-2.463591553202864e-003 -6.554077020337853e-001
-8.178088486769980e-001 1.112202751943885e-001
9.980085407421253e-002 -8.278275018477852e-001
-2.472448701358683e-001 -1.607811189231319e-001
-4.670008795957704e-001 1.602100184715652e-001
-1.000000000000000e+000 2.000000000000000e-001
-6.479786176418515e-001 2.290725441071875e-001
4.729781915940583e-003 -3.212522764187697e-001
1.020053248675630e-001 -4.874615357310237e-001
2.000000000000000e-001 -1.000000000000000e+000
-1.842144088102483e-001 -1.775690167036366e-002
2.021507165891419e-001 -6.571214052619856e-001
-2.820467615031381e-001 1.359482084151730e-001
-8.574884613140953e-002 -1.641864890721484e-001
-8.253676761221843e-001 3.132215577119585e-001
-4.937065558433775e-001 3.421031533812739e-001
3.024630167878391e-001 -8.278586151266030e-001
2.064947297925568e-001 -3.204864886581937e-001
-3.531470394892970e-001 2.790248634122449e-001
-1.000000000000000e+000 3.999999999999999e-001
3.055121628525279e-001 -4.886349672289850e-001
-6.571737085932429e-001 4.236539951163252e-001
1.014038866840297e-001 -1.629641847328523e-001
-9.265700817836146e-002 1.434989530429824e-001
4.160360186857670e-003 -1.082099752000448e-002
3.999999999999999e-001 -1.000000000000000e+000
4.049536092871097e-001 -6.560133578190026e-001
-1.931931109611424e-001 2.996382314846844e-001
-8.273208813854863e-001 5.146037857671404e-001
-3.260069303691849e-001 4.565540539315941e-001
-5.070091674367492e-001 5.025040892417769e-001
4.335590203214530e-001 -3.106743458315191e-001
2.908923566672398e-001 -1.512503608460997e-001
5.073133169822142e-001 -8.266395576917324e-001
4.824008535285828e-001 -5.003953661200248e-001
1.884276114120127e-001 -7.982105680092272e-003
-1.000000000000000e+000 6.000000000000000e-001
9.980613401149337e-002 1.466452809266427e-001
-6.391431592817887e-001 6.386676043779710e-001
2.637230907286845e-003 3.087110605405441e-001
-1.047452643671308e-001 4.738861205217385e-001
5.999999999999999e-001 -1.000000000000000e+000
6.285368720045474e-001 -6.361586499896762e-001
-4.171581989556072e-001 6.496168676517918e-001
4.705888866465145e-001 -9.798674075245907e-002
-8.412777685772558e-001 7.109788361303077e-001
6.376441330549876e-001 -4.110654376743925e-001
3.427302700981729e-001 -6.203170505875488e-003
-2.102159432616883e-001 6.470512988476693e-001
2.905783737453507e-001 1.386575085147042e-001
7.071926975708140e-001 -8.402840585562515e-001
6.382598366191976e-001 -2.049104042636631e-001
2.058882093536466e-001 3.095615195619549e-001
1.016785495274956e-001 4.796362790602578e-001
-1.000000000000000e+000 8.000000000000000e-001
-5.123841983148855e-001 8.259329071687965e-001
-7.105549801262806e-001 8.411754902945369e-001
8.208279545205411e-001 -5.101374159376076e-001
-2.318759261046843e-003 6.508387684444802e-001
7.999999999999998e-001 -1.000000000000000e+000
-3.071967581971623e-001 8.248028566833950e-001
4.705943361157927e-001 8.876879817375473e-002
8.377058754987887e-001 -7.093562935365414e-001
6.438657867750895e-001 -2.980591182923082e-003
8.198851191819586e-001 -3.046672827582610e-001
-8.703711716340852e-001 8.705091051202276e-001
4.336169144664427e-001 3.027962914803204e-001
3.056045768723518e-001 4.820291497938156e-001
-1.032696017753877e-001 8.249107219373357e-001
8.690250080614120e-001 -8.699002988377526e-001
-5.999999999999999e-001 1.000000000000000e+000
2.023536114514631e-001 6.528358887854888e-001
8.208352798903419e-001 -1.021875946293543e-001
-3.999999999999999e-001 1.000000000000000e+000
1.000000000000000e+000 -6.000000000000000e-001
-1.000000000000000e+000 1.000000000000000e+000
1.000000000000000e+000 -3.999999999999999e-001
-7.999999999999998e-001 1.000000000000000e+000
6.383869076748157e-001 1.994221884067419e-001
9.999295052844281e-002 8.258447839319117e-001
1.000000000000000e+000 -1.000000000000000e+000
-2.000000000000000e-001 1.000000000000000e+000
1.000000000000000e+000 -8.000000000000000e-001
4.826965070554078e-001 4.954702487570907e-001
8.208853964665082e-001 9.939274799186133e-002
1.000000000000000e+000 -2.000000000000000e-001
4.052607321751903e-001 6.525025678693362e-001
6.379005951600748e-001 4.069261428689038e-001
0.000000000000000e+000 1.000000000000000e+000
3.026701284140511e-001 8.260729327799817e-001
1.000000000000000e+000 0.000000000000000e+000
8.200238174317405e-001 3.023191687203374e-001
2.000000000000000e-001 1.000000000000000e+000
6.288324088774634e-001 6.337322782330755e-001
1.000000000000000e+000 2.000000000000000e-001
5.075226673026920e-001 8.252624404256795e-001
8.210118962756501e-001 5.085252748191587e-001
3.999999999999999e-001 1.000000000000000e+000
1.000000000000000e+000 3.999999999999999e-001
7.073513096433569e-001 8.394803627236839e-001
8.378605073977471e-001 7.085153207496503e-001
6.000000000000000e-001 1.000000000000000e+000
1.000000000000000e+000 5.999999999999999e-001
8.691053913019537e-001 8.695815319304583e-001
8.000000000000000e-001 1.000000000000000e+000
1.000000000000000e+000 7.999999999999998e-001
1.000000000000000e+000 1.000000000000000e+000
   1    2    3     3 
   1    4    2     2 
   2    5    3     3 
   2    4    6     6 
   2    6    5     5 
   5    7    3     3 
   4    8    6     6 
   5    6    9     9 
   5   10    7     7 
   5    9   10    10 
  11    6    8     8 
   9    6   11    11 
  10   12    7     7 
  11    8   13    13 
  14   10    9     9 
   9   11   15    15 
  16   12   10    10 
  14   16   10    10 
  14    9   17    17 
  17    9   15    15 
  11   13   18    18 
  11   18   15    15 
  19   12   16    16 
  20   16   14    14 
  18   13   21    21 
  17   22   14    14 
  15   23   17    17 
  22   20   14    14 
  18   24   15    15 
  19   16   25    25 
  25   16   20    20 
  22   17   23    23 
  24   23   15    15 
  26   18   21    21 
  24   18   26    26 
  22   27   20    20 
  25   28   19    19 
  22   23   27    27 
  25   20   29    29 
  26   21   30    30 
  31   23   24    24 
  27   32   20    20 
  32   29   20    20 
  27   23   33    33 
  24   26   34    34 
  33   23   31    31 
  35   28   25    25 
  35   25   29    29 
  34   31   24    24 
  26   30   36    36 
  26   36   34    34 
  37   32   27    27 
  37   27   33    33 
  38   29   32    32 
  35   39   28    28 
  40   35   29    29 
  33   31   41    41 
  34   42   31    31 
  38   40   29    29 
  36   30   43    43 
  37   44   32    32 
  41   31   42    42 
  36   45   34    34 
  38   32   46    46 
  47   37   33    33 
  41   47   33    33 
  42   34   45    45 
  39   35   48    48 
  46   32   44    44 
  40   48   35    35 
  38   49   40    40 
  47   44   37    37 
  43   50   36    36 
  36   50   45    45 
  41   42   51    51 
  52   38   46    46 
  38   52   49    49 
  48   53   39    39 
  42   45   54    54 
  55   48   40    40 
  56   47   41    41 
  49   55   40    40 
  46   44   57    57 
  51   42   54    54 
  56   41   51    51 
  47   58   44    44 
  43   59   50    50 
  45   50   60    60 
  57   44   58    58 
  60   54   45    45 
  46   61   52    52 
  56   58   47    47 
  62   53   48    48 
  46   57   61    61 
  49   52   63    63 
  62   48   55    55 
  64   55   49    49 
  51   54   65    65 
  56   51   66    66 
  50   59   67    67 
  63   52   61    61 
  49   63   64    64 
  60   50   67    67 
  65   66   51    51 
  68   54   60    60 
  56   69   58    58 
  62   70   53    53 
  57   58   71    71 
  65   54   68    68 
  62   55   72    72 
  57   73   61    61 
  72   55   64    64 
  56   66   69    69 
  63   61   74    74 
  69   71   58    58 
  67   59   75    75 
  71   73   57    57 
  60   67   76    76 
  68   60   76    76 
  64   63   77    77 
  73   74   61    61 
  65   78   66    66 
  70   62   79    79 
  72   79   62    62 
  72   64   77    77 
  65   68   80    80 
  66   81   69    69 
  74   82   63    63 
  63   82   77    77 
  83   71   69    69 
  68   76   80    80 
  66   78   81    81 
  84   67   75    75 
  84   76   67    67 
  65   85   78    78 
  86   73   71    71 
  65   80   85    85 
  81   83   69    69 
  87   74   73    73 
  79   88   70    70 
  77   89   72    72 
  83   86   71    71 
  90   79   72    72 
  87   73   86    86 
  80   76   91    91 
  92   82   74    74 
  90   72   89    89 
  84   75   93    93 
  87   92   74    74 
  94   77   82    82 
  81   78   95    95 
  84   96   76    76 
  81   95   83    83 
  94   89   77    77 
  78   85   97    97 
  80   98   85    85 
  76   96   91    91 
  99   88   79    79 
  99   79   90    90 
  80   91   98    98 
 100   86   83    83 
  97   95   78    78 
 101   87   86    86 
  92  102   82    82 
  82  102   94    94 
 100   83   95    95 
  84   93  103   103 
 103   96   84    84 
  90   89  104   104 
 105   92   87    87 
 100  101   86    86 
  97   85  106   106 
  85   98  106   106 
  94  107   89    89 
 101  105   87    87 
 108   91   96    96 
  99  109   88    88 
  91  110   98    98 
  89  107  104   104 
  90  111   99    99 
  97  112   95    95 
  90  104  111   111 
  92  113  102   102 
 112  100   95    95 
  91  108  110   110 
 103   93  114   114 
 105  113   92    92 
 115   94  102   102 
 103  116   96    96 
 115  107   94    94 
 117  101  100   100 
  99  111  109   109 
  96  116  108   108 
  97  106  118   118 
 119  106   98    98 
 105  101  120   120 
  98  110  119   119 
  97  118  112   112 
 103  114  116   116 
 112  121  100   100 
 113  122  102   102 
 117  120  101   101 
 117  100  121   121 
 102  122  115   115 
 123  113  105   105 
 120  123  105   105 
 106  124  118   118 
 106  119  124   124 
 112  118  125   125 
 125  121  112   112 
 113  126  122   122 
 126  113  123   123 
 117  127  120   120 
 117  121  127   127 
 118  124  128   128 
 128  125  118   118 
 120  129  123   123 
 125  130  121   121 
 120  127  129   129 
 121  130  127   127 
 123  131  126   126 
 129  131  123   123 
 128  132  125   125 
 125  132  130   130 
 127  133  129   129 
 134  127  130   130 
 134  133  127   127 
 129  135  131   131 
 135  129  133   133 
 130  132  136   136 
 134  130  136   136 
 137  133  134   134 
 133  138  135   135 
 137  138  133   133 
 134  136  139   139 
 134  139  137   137 
 137  140  138   138 
 137  139  140   140 
