VARIABLES = X, Y
ZONE I=505, J=928, F=FEPOINT
-9.351247665831337e-001 -9.350825536086326e-001
-1.000000000000000e+000 -1.000000000000000e+000
-9.000000000000000e-001 -1.000000000000000e+000
-1.000000000000000e+000 -9.000000000000006e-001
-8.553085456516450e-001 -9.202940360067376e-001
-9.206076216240167e-001 -8.551909791656901e-001
-8.000000000000000e-001 -1.000000000000000e+000
-1.000000000000000e+000 -8.000000000000005e-001
-8.201202385223046e-001 -8.190641425168302e-001
-7.567531459364093e-001 -9.125561885923646e-001
-9.138220805972362e-001 -7.569215045688543e-001
-7.000000000000000e-001 -1.000000000000000e+000
-1.000000000000000e+000 -7.000000000000004e-001
-7.113094124607753e-001 -8.250196010005612e-001
-8.293160672352902e-001 -7.113929570966470e-001
-6.548977722763966e-001 -9.109457317838157e-001
-7.556446594317461e-001 -7.524402265955821e-001
-9.138639140103758e-001 -6.563243635307302e-001
-6.000000000000000e-001 -1.000000000000000e+000
-6.095411361774431e-001 -8.186440295770198e-001
-1.000000000000000e+000 -6.000000000000003e-001
-6.729883453982207e-001 -7.362773974098679e-001
-7.464473292254198e-001 -6.706886638314785e-001
-8.277844029833634e-001 -6.136512050893095e-001
-5.529948740666629e-001 -9.091035127376533e-001
-9.131124383416119e-001 -5.566533258442936e-001
-5.622503213628011e-001 -7.132892820330575e-001
-5.000000000000000e-001 -1.000000000000000e+000
-5.047884427235509e-001 -8.163983278809187e-001
-6.551474412373580e-001 -6.371968383179966e-001
-1.000000000000000e+000 -5.000000000000002e-001
-7.399084898570322e-001 -5.735776774980040e-001
-8.253150541492218e-001 -5.142217223651077e-001
-4.497827320253602e-001 -9.079768115423313e-001
-4.629298578208875e-001 -7.382089728067370e-001
-9.121019604250716e-001 -4.564932052336173e-001
-5.614731144412023e-001 -5.953407556692359e-001
-4.000000000000000e-001 -1.000000000000000e+000
-6.496955696909199e-001 -5.334740915139288e-001
-4.712130074396930e-001 -6.493917316025639e-001
-3.927957581005446e-001 -8.099003579507664e-001
-7.361997182161738e-001 -4.726449346158225e-001
-1.000000000000000e+000 -4.000000000000001e-001
-8.230076051263001e-001 -4.132275667725340e-001
-3.488569023067683e-001 -9.117317435768962e-001
-3.849259120224469e-001 -7.007159383068268e-001
-5.597230163794812e-001 -4.903324650270124e-001
-4.721549075387048e-001 -5.468412031591796e-001
-9.109025459676868e-001 -3.555532237212571e-001
-6.463870292283111e-001 -4.310328928420302e-001
-3.000000000000000e-001 -1.000000000000000e+000
-2.998642728630915e-001 -8.398078657628636e-001
-3.850068699170514e-001 -6.001505420878003e-001
-7.325554523397636e-001 -3.705685281375306e-001
-2.996216839920429e-001 -7.530478377254015e-001
-1.000000000000000e+000 -3.000000000000000e-001
-8.199271035626574e-001 -3.105905105453038e-001
-4.714204843224781e-001 -4.449559261759419e-001
-2.511350479619944e-001 -9.121168610425459e-001
-5.573317212149881e-001 -3.886774459015938e-001
-2.991561793618250e-001 -6.521237602957058e-001
-3.848894633941446e-001 -4.989394660048916e-001
-6.418748874476576e-001 -3.296433060395202e-001
-9.094092283060302e-001 -2.535253040461557e-001
-2.073709511882284e-001 -8.116091753692468e-001
-2.000000000000001e-001 -1.000000000000000e+000
-7.260163418521889e-001 -2.662940901438525e-001
-2.986481860264984e-001 -5.513684136196578e-001
-2.143464568337376e-001 -7.032670629473913e-001
-4.698574502836801e-001 -3.447873653185978e-001
-1.000000000000000e+000 -2.000000000000000e-001
-3.843307045459320e-001 -3.982312362652123e-001
-8.154497427999664e-001 -2.048458766185187e-001
-5.534100058783992e-001 -2.896977641755960e-001
-1.509372806644607e-001 -9.091869675127847e-001
-2.131504815743586e-001 -6.033418071683404e-001
-2.981778794459298e-001 -4.505204511897207e-001
-6.330306730445875e-001 -2.308192757255052e-001
-1.382452721242389e-001 -7.430044127267090e-001
-9.086560676117929e-001 -1.504995902907538e-001
-9.779862775639407e-002 -8.203369963277112e-001
-7.100196867489471e-001 -1.513394671558124e-001
-1.000000000000001e-001 -1.000000000000000e+000
-3.835348535172534e-001 -2.986083387718198e-001
-4.677870029435314e-001 -2.469498453021373e-001
-2.120829473312533e-001 -5.023395213392474e-001
-1.289738872417692e-001 -6.561848205670305e-001
-2.977704673798254e-001 -3.501110273135093e-001
-1.000000000000000e+000 -9.999999999999987e-002
-5.479820159839212e-001 -1.962126896414850e-001
-8.156688298446916e-001 -9.716636650786199e-002
-4.937933784205117e-002 -9.108466710915516e-001
-6.152361251861090e-001 -1.514447907541239e-001
-4.284850112245529e-002 -7.235750974755215e-001
-1.261359918783641e-001 -5.547097800257228e-001
-2.115416419481138e-001 -4.013680668414280e-001
-9.096241686580685e-001 -4.763466130508640e-002
-3.829486358747727e-001 -2.001921382469045e-001
-2.974808153602793e-001 -2.503691002029333e-001
2.028442378393100e-003 -8.236063151438883e-001
-7.265921036023214e-001 -3.685583551815825e-002
-1.110223024625157e-016 -1.000000000000000e+000
-6.335076156714902e-001 -7.239784104875918e-002
-4.668205433180525e-001 -1.514146809807572e-001
-1.251663019695059e-001 -4.527553132374871e-001
-3.926752530150760e-002 -6.094303695988875e-001
-5.482499004269739e-001 -1.068162215094223e-001
-2.113037184769097e-001 -3.009019222465044e-001
-1.000000000000000e+000 1.110223024625157e-016
-8.204665197994224e-001 7.962060328438235e-003
5.054673121968865e-002 -9.117491092200215e-001
5.154151283589066e-002 -7.509577978356946e-001
-2.974537487743005e-001 -1.511770380002533e-001
-3.833658132342946e-002 -5.046935241141538e-001
5.105302271171266e-002 -6.615147734988408e-001
-1.248546488806888e-001 -3.515704412058127e-001
-3.831454612045324e-001 -1.024897124478438e-001
-6.427732991844215e-001 2.520209022163382e-002
-9.112204086122752e-001 5.396477511618533e-002
-2.112529606032507e-001 -2.009260199736588e-001
-5.541788177743934e-001 -1.417019132244400e-002
1.004753093619588e-001 -8.239045177338982e-001
-4.682726548745486e-001 -5.624802194886166e-002
-7.333381062828952e-001 6.608869546623236e-002
9.999999999999987e-002 -1.000000000000000e+000
-3.817100964917185e-002 -4.024186973326048e-001
4.982695051062424e-002 -5.563769918122927e-001
-1.247942059323818e-001 -2.510615631080789e-001
1.475528977048636e-001 -7.219777128508503e-001
-1.000000000000000e+000 1.000000000000001e-001
-8.234896531564644e-001 1.095490053210586e-001
-2.977551583748040e-001 -5.220909919669164e-002
1.504653078447080e-001 -9.118794066721293e-001
-2.113558337599042e-001 -1.012477937461984e-001
-5.583968850525677e-001 8.298312628323522e-002
-3.840852813963512e-001 -4.662020207735467e-003
4.899341194024354e-002 -4.531850755731470e-001
-6.472011894141511e-001 1.243714019602957e-001
-3.819523321551035e-002 -3.013542763314186e-001
1.401591860754291e-001 -6.068063073511093e-001
-4.707384499427680e-001 4.043790037947155e-002
-1.248470238681554e-001 -1.509708192422256e-001
-9.122737539542428e-001 1.543812136998853e-001
2.014477348430312e-001 -8.227911332889321e-001
-7.363758148907964e-001 1.662925268587593e-001
2.000000000000000e-001 -1.000000000000000e+000
4.856559742318137e-002 -3.516480249971215e-001
1.368545725528855e-001 -5.030201675714937e-001
-2.115545118418852e-001 -1.675796350294584e-003
-3.826843429668049e-002 -2.009516655221558e-001
-2.982064047622430e-001 4.682969930343992e-002
2.317312735263283e-001 -6.478128232987287e-001
-1.000000000000000e+000 2.000000000000001e-001
2.577384236878415e-001 -7.394554314476158e-001
-5.605643606101303e-001 1.815245697993984e-001
-8.250173231167729e-001 2.095387432453069e-001
-1.249560658133073e-001 -5.107909859059907e-002
-4.724651198669308e-001 1.385679112070412e-001
2.508312750587856e-001 -9.124745386803518e-001
-3.850806393496060e-001 9.373815450772878e-002
-6.491885493223656e-001 2.235103637641390e-001
1.355082526800999e-001 -4.015553708217208e-001
4.835977862693893e-002 -2.509977495160535e-001
2.249021692388929e-001 -5.499695035511941e-001
-3.836034547301704e-002 -1.008692663597260e-001
-9.128254871706724e-001 2.542189820570342e-001
3.026897305742302e-001 -8.264369557467647e-001
-2.117180704520486e-001 9.789338963105333e-002
-7.377725565062235e-001 2.656781187601688e-001
3.000000000000000e-001 -1.000000000000000e+000
3.104633741684601e-001 -6.743068271198316e-001
-1.250633408019866e-001 4.874644115974527e-002
1.350121600325984e-001 -3.009265154133864e-001
2.223786204442256e-001 -4.503757230818622e-001
-2.984870328939420e-001 1.460339912935346e-001
-4.731092298646679e-001 2.375228820613441e-001
4.823986782393642e-002 -1.507847520161878e-001
3.109421930551055e-001 -5.936718808642935e-001
-5.613864819816347e-001 2.807742782186058e-001
-3.855362848394548e-001 1.926529473370116e-001
-1.000000000000000e+000 3.000000000000000e-001
3.540271083582426e-001 -7.425909555716025e-001
-8.258097229579379e-001 3.089931932029780e-001
-3.844829838677059e-002 -9.091612924359017e-004
3.510476456283895e-001 -9.133510413697427e-001
-6.501706765187387e-001 3.228896107104588e-001
2.215573387881172e-001 -3.504631951071760e-001
1.348292603671364e-001 -2.006946279562371e-001
3.083577074411218e-001 -4.976944320311359e-001
-1.250839500747894e-001 1.485529699150970e-001
4.815147631056621e-002 -5.075721141534795e-002
-2.116736629645453e-001 1.974551708173747e-001
-9.131580191626782e-001 3.538822942529378e-001
3.991831516674254e-001 -6.472398928454506e-001
4.022983067984696e-001 -8.272823485057207e-001
-7.387454014492318e-001 3.649750968184104e-001
4.000000000000001e-001 -1.000000000000000e+000
-2.983023054714474e-001 2.453527806478535e-001
-4.727516152537228e-001 3.375175095059401e-001
-3.851663412744548e-001 2.920127088233003e-001
-3.848573564859919e-002 9.903300609397851e-002
2.213424090583150e-001 -2.504812977181369e-001
3.076474407008799e-001 -3.993942945900755e-001
1.347362804987959e-001 -1.006474572030777e-001
-5.617318042363276e-001 3.812401868896346e-001
3.922900498579983e-001 -5.442109559293984e-001
-1.000000000000000e+000 4.000000000000000e-001
4.810775813530747e-002 4.922785133110531e-002
4.533024400688397e-001 -7.400472347782584e-001
-8.265034176322171e-001 4.083513651790387e-001
4.511702974120582e-001 -9.135988579705964e-001
-1.249255300370654e-001 2.483009610447028e-001
-6.515054355205858e-001 4.227806781381533e-001
3.076284966990135e-001 -3.000476315709696e-001
-2.112513553619184e-001 2.968837250971235e-001
2.212814080943224e-001 -1.505080048217415e-001
-3.840752759562843e-002 1.990116122494729e-001
3.927337370949958e-001 -4.479710568944325e-001
1.346852479954024e-001 -6.633509542799745e-004
-2.973896504066218e-001 3.446537063877083e-001
-3.836356929104583e-001 3.919419652843450e-001
-9.134786600408390e-001 4.535371884028250e-001
4.672178311597047e-001 -5.807139101184700e-001
5.075096494167572e-001 -6.542784755322537e-001
5.027201712643107e-001 -8.272176184999745e-001
-4.713149721599161e-001 4.402564756396721e-001
-7.402400331322457e-001 4.641864256519357e-001
5.000000000000002e-001 -1.000000000000000e+000
4.817605767182398e-002 1.492703616992497e-001
3.077235400202605e-001 -2.002947828455957e-001
3.934791151547665e-001 -3.494716988338534e-001
-5.632675617580717e-001 4.837615744068971e-001
2.212436418624778e-001 -5.055296510400780e-002
4.761227269309949e-001 -4.972530068427843e-001
1.347335010408670e-001 9.934700421630553e-002
-1.245630863984297e-001 3.477899313069591e-001
-1.000000000000000e+000 5.000000000000000e-001
-3.819481556009601e-002 2.990398227249791e-001
-8.274096244091756e-001 5.076149656982231e-001
5.552683240935719e-001 -7.412465565456295e-001
-2.103198601108132e-001 3.958501886373729e-001
5.515521923349378e-001 -9.136052574854379e-001
-6.550930448167424e-001 5.220432489067920e-001
-2.954709918709852e-001 4.435100454794930e-001
3.939719263096365e-001 -2.500174371371896e-001
3.077650643632684e-001 -1.004116600077051e-001
4.844796163368745e-002 2.494979247568220e-001
5.615703699972489e-001 -5.601318817351688e-001
-3.798094362718342e-001 4.916911245627258e-001
4.787990090005085e-001 -3.992515815404009e-001
2.212586578421870e-001 4.940887456545975e-002
-4.671749483557223e-001 5.547080262598636e-001
-9.137965449424171e-001 5.532243295907530e-001
1.350199187079823e-001 1.994976420737965e-001
6.092506306257772e-001 -6.560363216959962e-001
6.035561214184544e-001 -8.274687599045559e-001
-7.425030676297243e-001 5.627065195070781e-001
6.000000000000003e-001 -1.000000000000000e+000
-3.809246700572124e-002 3.989794862029986e-001
3.942102782593712e-001 -1.502392291418639e-001
-5.735882683893895e-001 5.827073921724016e-001
4.799854545420399e-001 -2.998088697672749e-001
-1.241106133749139e-001 4.464358291245827e-001
3.077752402082073e-001 -4.913536392084916e-004
5.643331230761290e-001 -4.507731175034801e-001
-2.088294342237392e-001 4.938461158465153e-001
4.891915108560942e-002 3.501786979236927e-001
2.214648909067894e-001 1.494291630074923e-001
-1.000000000000000e+000 6.000000000000000e-001
-8.282550754281478e-001 6.066519946090576e-001
-2.928820243800505e-001 5.408800103096750e-001
6.558605193810040e-001 -7.425635253782570e-001
6.522197716730057e-001 -9.134599121973013e-001
-6.603835695307394e-001 6.187386137605803e-001
1.357449312301689e-001 3.000064084279838e-001
-3.689012485071461e-001 5.772471088146697e-001
6.554301334371890e-001 -5.833763213392230e-001
4.805484443504025e-001 -2.000671130391965e-001
3.942847879854459e-001 -5.035801897213706e-002
5.659329474758663e-001 -3.498782220952545e-001
6.511459167808400e-001 -4.984002534424538e-001
-5.070561479661978e-001 6.549609612295125e-001
3.078753491949637e-001 9.944521560790388e-002
-9.138619845203254e-001 6.531478761027131e-001
-3.923524093347048e-002 4.975647701094842e-001
2.221171260565608e-001 2.496153069870261e-001
4.917926818299536e-002 4.522693279660135e-001
7.199172733789688e-001 -6.549146639885555e-001
-7.445068536662879e-001 6.600355958923584e-001
7.040368735685173e-001 -8.270806471107673e-001
-4.075594720706650e-001 6.520085973492826e-001
-1.232347827928924e-001 5.432189732468105e-001
7.000000000000004e-001 -1.000000000000000e+000
-5.899581884152028e-001 6.634124790859220e-001
-2.068654152493323e-001 5.912648456789545e-001
4.807648698644553e-001 -1.002123871397138e-001
5.668053093093179e-001 -2.499415160133137e-001
1.371006365329388e-001 4.012841340171325e-001
3.943249093630914e-001 4.954600440970261e-002
6.520751393705032e-001 -3.995639748135829e-001
-2.977992793415885e-001 6.458023849745709e-001
3.082793447503727e-001 1.994012101087189e-001
-1.000000000000000e+000 7.000000000000000e-001
-8.280801840931465e-001 7.055861710258214e-001
7.348844136651373e-001 -5.477152030132639e-001
7.430719631237918e-001 -7.492373477002778e-001
2.236176358820890e-001 3.502217253221167e-001
7.542341621487997e-001 -9.129206186680542e-001
-6.580124210137723e-001 7.237777317760401e-001
4.772516999636293e-002 5.624271043534926e-001
-4.535089950790935e-001 7.392965302229358e-001
5.672017580992713e-001 -1.500745725246471e-001
4.808196881100569e-001 -3.181410275711847e-004
-5.520908607556591e-001 7.379325389711964e-001
6.530603093094053e-001 -2.997875979970785e-001
-4.657159805150354e-002 5.813708314103373e-001
7.379514326403415e-001 -4.490294944529973e-001
3.945006173536691e-001 1.494289948770131e-001
1.391347492333310e-001 5.031286423747533e-001
-9.133592555427241e-001 7.546092849413818e-001
-1.137279173716342e-001 6.475021283935610e-001
3.093280917843329e-001 2.993631735633908e-001
-3.521563498540316e-001 7.392700225280553e-001
-7.508781117990495e-001 7.450148344204519e-001
8.201967596045471e-001 -6.014509105221729e-001
8.200466715304416e-001 -7.048134784309806e-001
-2.050143723179795e-001 6.746843195969453e-001
8.151074051882901e-001 -8.174760157451951e-001
8.000000000000005e-001 -1.000000000000000e+000
2.266834632417763e-001 4.521824751192648e-001
5.673292551993899e-001 -5.018239178410060e-002
6.536089456400971e-001 -1.999425438106524e-001
4.808701735234617e-001 9.956820081586777e-002
7.393095542527158e-001 -3.495714568528350e-001
3.950385352798344e-001 2.492157713130392e-001
8.238431372236797e-001 -4.996128515765355e-001
-1.000000000000000e+000 8.000000000000000e-001
-6.035562079359628e-001 8.216820538151297e-001
-8.183161898772696e-001 8.156758734849542e-001
-2.521250940897455e-001 7.435824731942119e-001
-5.019759212186745e-001 8.249688812236874e-001
-4.462160449559607e-003 6.555449568891464e-001
3.115681125058078e-001 3.991621084273706e-001
1.412796174948863e-001 5.887460578774177e-001
-7.063007667140065e-001 8.212308573206183e-001
-4.016015280193921e-001 8.263380889795425e-001
8.538818188098419e-001 -9.198939501558812e-001
6.538275138923794e-001 -1.000604609392507e-001
5.673497880989683e-001 4.972003084588480e-002
7.400042503241901e-001 -2.498140862756724e-001
-1.550685838553504e-001 7.441680701698603e-001
2.330939337690876e-001 5.621212011299777e-001
8.256024396373099e-001 -3.995820070905687e-001
9.104716798572268e-001 -6.518261948389293e-001
4.810681933473537e-001 1.993838097292472e-001
9.467508731446601e-002 6.582607424573527e-001
9.108555099105063e-001 -7.546884167250191e-001
-9.202029475830220e-001 8.539580928098012e-001
3.962030268355772e-001 3.486803368245288e-001
9.112320524749071e-001 -5.504107052733934e-001
-5.534722247757615e-002 7.410804440087180e-001
-3.014435480828968e-001 8.277174287847126e-001
3.161381131162407e-001 4.974543429614469e-001
9.191190575550223e-001 -8.544316892151502e-001
9.000000000000006e-001 -1.000000000000000e+000
-5.514031179216080e-001 9.117201242872491e-001
6.538750657350868e-001 -1.513922852566680e-004
7.403089641574866e-001 -1.499581751680907e-001
5.673875617993819e-001 1.495982588571168e-001
-6.526648709908893e-001 9.109173829923735e-001
-7.552753487826731e-001 9.111105076673570e-001
8.264251075775992e-001 -2.997566153668462e-001
-4.508460170383164e-001 9.127892124363894e-001
9.123595422445616e-001 -4.498782281361058e-001
4.815494152009698e-001 2.989926534277271e-001
-2.021025239976364e-001 8.288254490590349e-001
-1.000000000000000e+000 9.000000000000000e-001
1.915156304887736e-001 6.580007498126742e-001
-8.547604369034651e-001 9.191812919917087e-001
4.595558106479186e-002 7.422899153076639e-001
3.981867906127281e-001 4.471531558202332e-001
-3.506959630266094e-001 9.135403664222760e-001
9.346207099350350e-001 -9.348398163792633e-001
1.000000000000000e+000 -7.000000000000000e-001
-1.028075181066760e-001 8.284893650185551e-001
1.000000000000000e+000 -6.000000000000000e-001
3.271165985069858e-001 5.808023612614517e-001
7.404024157807418e-001 -5.005213119401675e-002
6.538675881781432e-001 9.976551283259794e-002
8.267880655290112e-001 -1.998954333624661e-001
1.000000000000000e+000 -8.000000000000000e-001
5.675259709812744e-001 2.493941227807801e-001
9.130108669174940e-001 -3.498408990205862e-001
2.895738568041135e-001 6.547573938603479e-001
1.000000000000000e+000 -5.000000000000000e-001
4.823161800149958e-001 3.980809385698008e-001
1.453283839305192e-001 7.426729564082634e-001
-9.349794437054022e-001 9.346085150343064e-001
-6.000000000000003e-001 1.000000000000000e+000
-2.508121410386878e-001 9.141117229662741e-001
-5.000000000000002e-001 1.000000000000000e+000
-7.000000000000004e-001 1.000000000000000e+000
-2.740624932614680e-003 8.280460364725872e-001
4.004576253759102e-001 5.432911259890342e-001
1.000000000000000e+000 -9.000000000000000e-001
1.000000000000000e+000 -1.000000000000000e+000
-8.000000000000005e-001 1.000000000000000e+000
-4.000000000000001e-001 1.000000000000000e+000
7.404034371172852e-001 4.988033735759639e-002
8.269182797702007e-001 -9.998608866384455e-002
6.538722747209844e-001 1.996694979434479e-001
-1.510847493489456e-001 9.142997420246456e-001
9.133154988127520e-001 -2.499059150822577e-001
1.000000000000000e+000 -4.000000000000000e-001
5.677491410358785e-001 3.490089121621793e-001
2.443199103505488e-001 7.416701033114917e-001
-1.000000000000000e+000 1.000000000000000e+000
-9.000000000000006e-001 1.000000000000000e+000
4.829301841815511e-001 4.960164891330092e-001
9.735413744558187e-002 8.281262607615639e-001
3.960242653240562e-001 6.462726278372163e-001
-3.000000000000000e-001 1.000000000000000e+000
-5.122634157356918e-002 9.141596904367250e-001
8.269422507998593e-001 -4.453139304705367e-005
7.403781426231876e-001 1.498267259837071e-001
9.134363317080115e-001 -1.499648818224989e-001
6.538937404230445e-001 2.995519643774695e-001
1.000000000000000e+000 -3.000000000000000e-001
3.444884882772899e-001 7.396224948345069e-001
5.677741270047653e-001 4.483027540435765e-001
-2.000000000000000e-001 1.000000000000000e+000
1.970390475845356e-001 8.278639449641489e-001
4.878368334445248e-002 9.140403001950972e-001
4.822192241204774e-001 5.916523272188765e-001
8.269259221940644e-001 9.991707906601503e-002
9.134704719226542e-001 -5.000398358029170e-002
-9.999999999999987e-002 1.000000000000000e+000
7.403448340353523e-001 2.497947737294441e-001
1.000000000000000e+000 -2.000000000000001e-001
6.538134581574931e-001 3.994649036597674e-001
2.967248323535280e-001 8.271466941905787e-001
5.667206731344069e-001 5.471084750741824e-001
4.427725395816602e-001 7.410773252527866e-001
1.487424983724276e-001 9.139472070585536e-001
4.845253936568754e-001 6.721245196340913e-001
1.110223024625157e-016 1.000000000000000e+000
9.134691614328028e-001 4.997159242070878e-002
8.268940556135549e-001 1.999008286884742e-001
1.000000000000000e+000 -1.000000000000001e-001
7.402657649468148e-001 3.498436582179631e-001
3.962312808719247e-001 8.265098189390937e-001
6.532908416540781e-001 4.997250886079783e-001
2.486121985252980e-001 9.137224659917660e-001
5.621533389852543e-001 6.444271213895648e-001
1.000000000000001e-001 1.000000000000000e+000
9.134545438456864e-001 1.499591970308892e-001
1.000000000000000e+000 -1.110223024625157e-016
8.268392454520915e-001 2.999395194286574e-001
5.386340847459229e-001 7.365469694722094e-001
7.400412600181974e-001 4.501449025558277e-001
3.484292264668318e-001 9.133708694534617e-001
4.955069408438903e-001 8.247310104921147e-001
6.517142602760336e-001 6.019360361762645e-001
2.000000000000001e-001 1.000000000000000e+000
1.000000000000000e+000 9.999999999999987e-002
9.134297863841043e-001 2.499686738965273e-001
8.267280516967572e-001 4.001178110162729e-001
4.482554654596420e-001 9.126939676747942e-001
7.396205717553729e-001 5.510505132840681e-001
6.484332392501138e-001 7.164429048682127e-001
3.000000000000000e-001 1.000000000000000e+000
1.000000000000000e+000 2.000000000000000e-001
5.974283502722045e-001 8.197037477405416e-001
9.133847569777026e-001 3.500323605452968e-001
8.265298618892168e-001 5.005761347203460e-001
4.000000000000000e-001 1.000000000000000e+000
5.486863100846835e-001 9.112523284145140e-001
7.397473985432712e-001 6.523652466812722e-001
1.000000000000000e+000 3.000000000000000e-001
9.133036692264825e-001 4.502082305891972e-001
7.022163897163139e-001 8.186155471452198e-001
5.000000000000000e-001 1.000000000000000e+000
8.262897789741559e-001 6.013666542465905e-001
7.465218035137635e-001 7.408018913280336e-001
6.504118763035746e-001 9.100260817777465e-001
1.000000000000000e+000 4.000000000000001e-001
9.131746423532121e-001 5.505704092151021e-001
6.000000000000000e-001 1.000000000000000e+000
8.257127425529130e-001 7.022561400574800e-001
8.163462244742297e-001 8.139927564943835e-001
1.000000000000000e+000 5.000000000000002e-001
7.538552317752405e-001 9.102635786147242e-001
9.129285109676225e-001 6.512933998781819e-001
7.000000000000000e-001 1.000000000000000e+000
1.000000000000000e+000 6.000000000000003e-001
9.124216769138088e-001 7.535193651758805e-001
8.540814029363230e-001 9.187167695515348e-001
8.000000000000000e-001 1.000000000000000e+000
9.195879969763657e-001 8.534643742402847e-001
1.000000000000000e+000 7.000000000000004e-001
1.000000000000000e+000 8.000000000000005e-001
9.000000000000000e-001 1.000000000000000e+000
9.347278014453553e-001 9.344466989143543e-001
1.000000000000000e+000 9.000000000000006e-001
1.000000000000000e+000 1.000000000000000e+000
   1    2    3     3 
   1    4    2     2 
   1    3    5     5 
   6    4    1     1 
   6    1    5     5 
   3    7    5     5 
   4    6    8     8 
   9    6    5     5 
   5    7   10    10 
   9    5   10    10 
  11    8    6     6 
   6    9   11    11 
  10    7   12    12 
  11   13    8     8 
  10   14    9     9 
  15   11    9     9 
  10   12   16    16 
  10   16   14    14 
   9   14   17    17 
   9   17   15    15 
  11   18   13    13 
  18   11   15    15 
  16   12   19    19 
  20   14   16    16 
  21   13   18    18 
  17   14   22    22 
  17   23   15    15 
  22   14   20    20 
  18   15   24    24 
  19   25   16    16 
  20   16   25    25 
  23   24   15    15 
  17   22   23    23 
  21   18   26    26 
  26   18   24    24 
  20   27   22    22 
  19   28   25    25 
  20   25   29    29 
  30   23   22    22 
  20   29   27    27 
  31   21   26    26 
  32   24   23    23 
  27   30   22    22 
  33   26   24    24 
  32   23   30    30 
  28   34   25    25 
  29   25   34    34 
  32   33   24    24 
  35   27   29    29 
  36   31   26    26 
  27   37   30    30 
  36   26   33    33 
  34   28   38    38 
  32   30   39    39 
  35   40   27    27 
  34   41   29    29 
  27   40   37    37 
  35   29   41    41 
  30   37   39    39 
  42   33   32    32 
  43   31   36    36 
  36   33   44    44 
  39   42   32    32 
  38   45   34    34 
  42   44   33    33 
  41   34   45    45 
  35   46   40    40 
  35   41   46    46 
  39   37   47    47 
  48   37   40    40 
  43   36   49    49 
  49   36   44    44 
  39   50   42    42 
  37   48   47    47 
  38   51   45    45 
  39   47   50    50 
  41   45   52    52 
  53   40   46    46 
  54   44   42    42 
  48   40   53    53 
  41   55   46    46 
  50   54   42    42 
  56   43   49    49 
  41   52   55    55 
  57   49   44    44 
  47   48   58    58 
  51   59   45    45 
  54   57   44    44 
  52   45   59    59 
  50   47   60    60 
  53   46   61    61 
  55   61   46    46 
  53   62   48    48 
  58   60   47    47 
  50   63   54    54 
  48   62   58    58 
  64   56   49    49 
  64   49   57    57 
  55   52   65    65 
  50   60   63    63 
  59   51   66    66 
  59   65   52    52 
  67   57   54    54 
  61   68   53    53 
  53   68   62    62 
  63   67   54    54 
  55   69   61    61 
  58   70   60    60 
  55   65   69    69 
  64   71   56    56 
  62   72   58    58 
  64   57   73    73 
  63   60   74    74 
  67   73   57    57 
  59   75   65    65 
  66   75   59    59 
  58   72   70    70 
  60   70   74    74 
  61   76   68    68 
  76   61   69    69 
  62   68   77    77 
  63   78   67    67 
  77   72   62    62 
  65   79   69    69 
  80   71   64    64 
  63   74   78    78 
  80   64   73    73 
  65   75   81    81 
  82   73   67    67 
  66   83   75    75 
  65   81   79    79 
  72   84   70    70 
  82   67   78    78 
  74   70   85    85 
  68   76   86    86 
  86   77   68    68 
  76   69   87    87 
  87   69   79    79 
  88   72   77    77 
  70   84   85    85 
  89   71   80    80 
  78   74   90    90 
  88   84   72    72 
  91   80   73    73 
  82   91   73    73 
  81   75   92    92 
  74   85   90    90 
  75   83   92    92 
  82   78   93    93 
  79   81   94    94 
  95   86   76    76 
  95   76   87    87 
  77   86   96    96 
  87   79   94    94 
  77   96   88    88 
  78   90   93    93 
  89   80   97    97 
  84   98   85    85 
  91   97   80    80 
  88   99   84    84 
  81   92  100   100 
  82  101   91    91 
 100   94   81    81 
  92   83  102   102 
  82   93  103   103 
  90   85  104   104 
  99   98   84    84 
 105   86   95    95 
  82  103  101   101 
 104   85   98    98 
 105   96   86    86 
  94  106   87    87 
  95   87  106   106 
  90  107   93    93 
  96  108   88    88 
  97  109   89    89 
 108   99   88    88 
 110   97   91    91 
  90  104  107   107 
 101  110   91    91 
 111  100   92    92 
  93  107  103   103 
  92  102  111   111 
 100  112   94    94 
  99  113   98    98 
 105   95  114   114 
 114   95  106   106 
  94  115  106   106 
 105  116   96    96 
  98  117  104   104 
  96  116  108   108 
  94  112  115   115 
 101  103  118   118 
 119  109   97    97 
 119   97  110   110 
 108  120   99    99 
  98  113  117   117 
 103  107  121   121 
  99  120  113   113 
 111  122  100   100 
 107  104  123   123 
 112  100  122   122 
 101  124  110   110 
 111  102  125   125 
 118  103  121   121 
 101  118  124   124 
 104  117  123   123 
 105  114  126   126 
 114  106  127   127 
 105  126  116   116 
 106  115  127   127 
 123  121  107   107 
 116  128  108   108 
 115  112  129   129 
 108  128  120   120 
 119  130  109   109 
 119  110  131   131 
 113  132  117   117 
 129  112  122   122 
 124  131  110   110 
 111  133  122   122 
 113  120  134   134 
 125  133  111   111 
 118  121  135   135 
 123  117  136   136 
 114  137  126   126 
 114  127  137   137 
 113  134  132   132 
 138  124  118   118 
 139  116  126   126 
 115  140  127   127 
 139  128  116   116 
 115  129  140   140 
 117  132  136   136 
 141  121  123   123 
 128  142  120   120 
 138  118  135   135 
 143  130  119   119 
 143  119  131   131 
 129  122  144   144 
 120  142  134   134 
 135  121  141   141 
 144  122  133   133 
 136  141  123   123 
 145  131  124   124 
 125  146  133   133 
 138  145  124   124 
 147  126  137   137 