VARIABLES = X, Y
ZONE I=1925, J=3688, F=FEPOINT
-9.673052884524568e-001 -9.674640913342618e-001
-1.000000000000000e+000 -1.000000000000000e+000
-9.500000000000000e-001 -1.000000000000000e+000
-1.000000000000000e+000 -9.500000000000011e-001
-9.269327292282504e-001 -9.600456279210746e-001
-9.595521280660474e-001 -9.273158694144792e-001
-9.000000000000000e-001 -1.000000000000000e+000
-1.000000000000000e+000 -9.000000000000010e-001
-9.075448906662948e-001 -9.089783907553806e-001
-8.771090831122156e-001 -9.566087120581995e-001
-9.554239193549304e-001 -8.775012165727177e-001
-8.500000000000000e-001 -1.000000000000000e+000
-1.000000000000000e+000 -8.500000000000010e-001
-8.520132752612294e-001 -9.138422252373134e-001
-9.100265939275157e-001 -8.527307474279544e-001
-8.261062704033969e-001 -9.568908488950246e-001
-8.715366972381299e-001 -8.750020953458433e-001
-9.552403651934748e-001 -8.260969667545787e-001
-8.000000000000000e-001 -1.000000000000000e+000
-8.017829874632385e-001 -9.140230784475881e-001
-1.000000000000000e+000 -8.000000000000009e-001
-8.279403188110791e-001 -8.716928175846590e-001
-8.599776429449372e-001 -8.279030952974695e-001
-9.101163277303971e-001 -8.010673945306209e-001
-7.757801483761448e-001 -9.569364756078276e-001
-9.556275649944820e-001 -7.753818855176314e-001
-7.776552318429383e-001 -8.709748497745767e-001
-7.500000000000000e-001 -1.000000000000000e+000
-7.513782758627704e-001 -9.138170459228870e-001
-8.046515731899694e-001 -8.284683654169239e-001
-1.000000000000000e+000 -7.500000000000009e-001
-8.674721816783902e-001 -7.742864289202598e-001
-9.119449985701810e-001 -7.501084641072574e-001
-7.255989786005931e-001 -9.568750733371668e-001
-8.277470255995796e-001 -7.921656093130423e-001
-7.266849850736240e-001 -8.702356967330110e-001
-9.561919344542638e-001 -7.250830153492608e-001
-7.537856686598615e-001 -8.274825492400563e-001
-7.000000000000000e-001 -1.000000000000000e+000
-7.011847649318753e-001 -9.137225784246330e-001
-8.690009554002976e-001 -7.248673068390259e-001
-7.808118408208281e-001 -7.804775186996876e-001
-8.256010547307410e-001 -7.496262542943125e-001
-1.000000000000000e+000 -7.000000000000008e-001
-9.128179733021516e-001 -7.000197580829416e-001
-6.755510397760220e-001 -9.566756718263819e-001
-6.996292022042316e-001 -8.237744659385676e-001
-6.770681811730389e-001 -8.713284189508044e-001
-7.336337815544938e-001 -7.906535248733386e-001
-9.565121256682755e-001 -6.750210469531369e-001
-8.260476664544649e-001 -7.001103036143302e-001
-6.500000000000000e-001 -1.000000000000000e+000
-7.821751223894046e-001 -7.257357564079374e-001
-8.696625803984427e-001 -6.750352839016069e-001
-6.514067012559072e-001 -9.131562492133710e-001
-7.380679550288618e-001 -7.489161986036023e-001
-1.000000000000000e+000 -6.500000000000008e-001
-9.132156661408984e-001 -6.500280708997389e-001
-6.552935990755600e-001 -8.371188799263833e-001
-6.961591420145906e-001 -7.722690539794904e-001
-6.254625933978987e-001 -9.561582351584740e-001
-6.289578690392005e-001 -8.695847479413686e-001
-7.829490197201588e-001 -6.751939679563247e-001
-8.265164158386619e-001 -6.501132422602739e-001
-6.555107330696254e-001 -7.968334753279583e-001
-9.566571794319203e-001 -6.250139463255312e-001
-7.393786491380266e-001 -6.998621963049140e-001
-8.699905469400293e-001 -6.250605741288006e-001
-6.000000000000001e-001 -1.000000000000000e+000
-6.008251072760412e-001 -9.111971745572180e-001
-6.963495602903264e-001 -7.241426960471622e-001
-6.159496436663355e-001 -8.237361819070599e-001
-1.000000000000000e+000 -6.000000000000008e-001
-9.133846029070171e-001 -6.000326544306280e-001
-6.541811070506710e-001 -7.488748015124975e-001
-7.833617414728556e-001 -6.251331918360463e-001
-5.753060048912880e-001 -9.557923646131073e-001
-7.399456170892295e-001 -6.500718572990772e-001
-8.267714462828697e-001 -6.000990888637416e-001
-5.739196852277981e-001 -8.606807893121445e-001
-6.124963968592778e-001 -7.748548843007508e-001
-6.966914251164688e-001 -6.748659140255603e-001
-9.567125001035168e-001 -5.750143762482942e-001
-8.701300085309148e-001 -5.750612250334656e-001
-5.500000000000000e-001 -1.000000000000000e+000
-6.537868126771254e-001 -6.997459649734742e-001
-5.503888651390055e-001 -9.116471648291050e-001
-5.701906290715347e-001 -8.031206710476462e-001
-7.402088801385304e-001 -6.001383506746475e-001
-7.835455805448966e-001 -5.751286743485000e-001
-1.000000000000000e+000 -5.500000000000007e-001
-6.111837890650461e-001 -7.251208649134971e-001
-9.134435281788930e-001 -5.500342582050116e-001
-6.969153892479806e-001 -6.251034790409392e-001
-5.253751735521522e-001 -9.556828333943180e-001
-8.268712132015638e-001 -5.500948648198677e-001
-5.259755013125508e-001 -8.750735932650894e-001
-5.257139326283552e-001 -8.303600668876342e-001
-6.537470358804540e-001 -6.500794322726017e-001
-5.684772959894456e-001 -7.513104636977016e-001
-9.567280830273189e-001 -5.250155682540617e-001
-8.701725122474834e-001 -5.250622573440088e-001
-6.107289684214917e-001 -6.752184313271584e-001
-7.403067219658999e-001 -5.501650524252956e-001
-5.000000000000000e-001 -1.000000000000000e+000
-5.012125664488990e-001 -9.114483318813703e-001
-6.970214753796786e-001 -5.751825822218427e-001
-7.836017782729661e-001 -5.251345677320639e-001
-5.250384244615368e-001 -7.778686302211649e-001
-1.000000000000000e+000 -5.000000000000007e-001
-5.677416304011338e-001 -7.006720643586527e-001
-6.537762973641023e-001 -6.001979889347064e-001
-9.134553750878086e-001 -5.000368868563585e-001
-4.788260198289387e-001 -8.613614510724583e-001
-8.268912055019619e-001 -5.000995456036480e-001
-4.754369402937371e-001 -9.552204080582974e-001
-6.105926952414961e-001 -6.252595994623872e-001
-4.805703215417294e-001 -8.043341863345023e-001
-5.245415747460151e-001 -7.263909179328373e-001
-9.567287909846850e-001 -4.750172283080028e-001
-6.970453718621461e-001 -5.252171899828756e-001
-7.403191585532366e-001 -5.001844024993795e-001
-5.674470889872448e-001 -6.504320235317915e-001
-8.701732063772708e-001 -4.750674545284247e-001
-6.537844746075030e-001 -5.502469003051889e-001
-4.513387754273923e-001 -9.098290223723092e-001
-4.500000000000001e-001 -1.000000000000000e+000
-7.835978504492046e-001 -4.751473115393517e-001
-4.809476669244725e-001 -7.520793233676981e-001
-6.105459269466839e-001 -5.752863788471920e-001
-1.000000000000000e+000 -4.500000000000006e-001
-5.242586437480337e-001 -6.757309526889301e-001
-4.357902017414965e-001 -8.277427951013951e-001
-9.134501609034261e-001 -4.500408557161379e-001
-8.268780836868603e-001 -4.501096968470318e-001
-5.673287705845772e-001 -6.003586817711474e-001
-4.311767142089751e-001 -8.711330741151315e-001
-4.246800491531561e-001 -9.544195331667015e-001
-6.970242565352968e-001 -4.752433417386995e-001
-6.537621686691250e-001 -5.002783011468094e-001
-4.371278389045695e-001 -7.771041546549173e-001
-4.809397609521373e-001 -7.010674518905292e-001
-7.402940323174537e-001 -4.502050154027919e-001
-9.567247142776982e-001 -4.250192277545630e-001
-6.105094195201592e-001 -5.253129252024510e-001
-5.241111000880373e-001 -6.254791533426155e-001
-8.701589148061295e-001 -4.250751202544130e-001
-7.835706201871631e-001 -4.251638980517743e-001
-3.966157921657685e-001 -9.055722201340181e-001
-4.000000000000000e-001 -1.000000000000000e+000
-5.672662252263705e-001 -5.503543507324852e-001
-3.931839056493507e-001 -8.514288536276761e-001
-4.375047756063582e-001 -7.262559315773442e-001
-4.808593304228037e-001 -6.506315137349822e-001
-3.937269243379586e-001 -8.015827936877078e-001
-1.000000000000000e+000 -4.000000000000006e-001
-9.134394657270549e-001 -4.000455699586198e-001
-6.537215108315543e-001 -4.503068347767496e-001
-6.969840277847705e-001 -4.252692023692499e-001
-8.268532725345189e-001 -4.001223629607432e-001
-5.240278069580151e-001 -5.754100289495915e-001
-6.104657014171543e-001 -4.753413792461167e-001
-3.746137789273006e-001 -9.559470526928160e-001
-7.402550465124850e-001 -4.002273422097664e-001
-3.941395563249192e-001 -7.512236297528391e-001
-4.375628807734451e-001 -6.757640967726418e-001
-5.672151425175981e-001 -5.003753559710286e-001
-9.567192198601747e-001 -3.750212715791102e-001
-4.807840211853791e-001 -6.004800778028657e-001
-3.506950398232498e-001 -8.765578452138275e-001
-8.701398108928925e-001 -3.750835048455336e-001
-3.509274839412826e-001 -8.263148374852799e-001
-7.835356758782658e-001 -3.751818197368804e-001
-3.504520410165010e-001 -9.198304884566511e-001
-5.239680662490968e-001 -5.254117672297485e-001
-3.500000000000000e-001 -1.000000000000000e+000
-6.536730308123667e-001 -4.003354614588194e-001
-3.942701468298780e-001 -7.008396893554693e-001
-6.104162764823405e-001 -4.253709381625544e-001
-3.510505807316844e-001 -7.761765020597218e-001
-4.375274889896474e-001 -6.255533182919857e-001
-6.969372563977322e-001 -3.752954820532939e-001
-1.000000000000000e+000 -3.500000000000005e-001
-9.134272437787322e-001 -3.500500982236490e-001
-5.671641190587362e-001 -4.504037963274624e-001
-4.807215641509453e-001 -5.504522256785752e-001
-8.268251490729948e-001 -3.501351486116246e-001
-3.258576401332745e-001 -9.558477663032684e-001
-7.402121181774194e-001 -3.502498112222172e-001
-5.239144968945321e-001 -4.754358198685655e-001
-3.084750771214952e-001 -8.510899686209127e-001
-3.510736263680642e-001 -7.259117956733259e-001
-3.942678119133207e-001 -6.506198856976543e-001
-3.043842895821430e-001 -9.052025012139172e-001
-4.374727382135353e-001 -5.754956489088575e-001
-9.567135675492985e-001 -3.250229966422702e-001
-3.083228568056988e-001 -8.013369964229450e-001
-8.701200639728613e-001 -3.250912131310397e-001
-6.103644598668282e-001 -3.754008164456579e-001
-6.536222321306221e-001 -3.503640349345571e-001
-7.834994883935557e-001 -3.251991141662071e-001
-4.806660162904970e-001 -5.004682322229549e-001
-2.999999999999999e-001 -1.000000000000000e+000
-5.671119054932584e-001 -4.004339142365879e-001
-3.510370575037381e-001 -6.756961103958190e-001
-6.968893225003123e-001 -3.253212662198963e-001
-3.080482750273475e-001 -7.511134925661196e-001
-3.942226614153410e-001 -6.005406014445429e-001
-5.238618429895201e-001 -4.254652910901331e-001
-1.000000000000000e+000 -3.000000000000005e-001
-9.134155704903923e-001 -3.000536606492450e-001
-4.374176134514454e-001 -5.255013993240280e-001
-2.756370257733906e-001 -9.540280185380557e-001
-8.267978070889993e-001 -3.001464820509041e-001
-2.702453568636840e-001 -8.702652253890981e-001
-2.662166974157699e-001 -8.269390910618216e-001
-7.401697887543145e-001 -3.002710026128714e-001
-4.806128112870729e-001 -4.504961097200215e-001
-3.078745805196588e-001 -7.008366336290965e-001
-3.509804852959399e-001 -6.255934040638208e-001
-6.103121868791376e-001 -3.254304939020569e-001
-5.670591837713350e-001 -3.504642493465582e-001
-3.941690985557047e-001 -5.505354703466131e-001
-2.652037953168294e-001 -7.766453369425043e-001
-9.567086051244086e-001 -2.750240292705476e-001
-6.535717473231991e-001 -3.003918806788212e-001
-2.492371719812164e-001 -9.086930954524389e-001
-8.701021919207009e-001 -2.750971000819931e-001
-5.238091206937018e-001 -3.754956723948961e-001
-4.373641189968131e-001 -4.755268766159416e-001
-7.834655513361617e-001 -2.752142821810531e-001
-2.499999999999999e-001 -1.000000000000000e+000
-6.968429968808737e-001 -2.753455250177093e-001
-3.077619903106202e-001 -6.506756649538566e-001
-2.647935068593575e-001 -7.261197416758008e-001
-4.805600821725245e-001 -4.005262629700077e-001
-3.509224727154274e-001 -5.755729023605344e-001
-2.228740219310710e-001 -8.593624952058614e-001
-1.000000000000000e+000 -2.500000000000004e-001
-3.941155205230291e-001 -5.005577988046594e-001
-9.134060643891311e-001 -2.500558788899106e-001
-2.242919450114970e-001 -9.543241021534893e-001
-2.221858683327383e-001 -8.030464140549078e-001
-8.267740525243338e-001 -2.501555910937439e-001
-5.670065973342294e-001 -3.004943556954533e-001
-6.102606124040412e-001 -2.754594998147596e-001
-4.373113347663615e-001 -4.255566606550711e-001
-7.401307495835470e-001 -2.502900435064744e-001
-5.237563628047509e-001 -3.255260853726579e-001
-2.645795730552003e-001 -6.758170127314455e-001
-3.076828694415003e-001 -6.006211633963637e-001
-2.217229597274858e-001 -7.515897402913820e-001
-6.535230719409860e-001 -2.504184449068499e-001
-3.508673339516153e-001 -5.255894839743033e-001
-9.567049992680200e-001 -2.250244865912968e-001
-4.805073901531840e-001 -3.505566837732125e-001
-1.979169163415816e-001 -9.088705533242818e-001
-8.700880535222487e-001 -2.251013360131190e-001
-3.940626583769560e-001 -4.505870387189407e-001
-1.999999999999998e-001 -1.000000000000000e+000
-7.834361791795810e-001 -2.252272618530082e-001
-1.785804655807588e-001 -8.271791881864724e-001
-6.967999599230287e-001 -2.253680283426655e-001
-4.372586986645866e-001 -3.755870229346729e-001
-2.644568841384131e-001 -6.256920196419605e-001
-2.214250870236848e-001 -7.010259020504391e-001
-3.076208479769591e-001 -5.506241691385092e-001
-5.669545882585523e-001 -2.505240100730590e-001
-1.000000000000000e+000 -2.000000000000004e-001
-5.237037783873150e-001 -2.755563299089346e-001
-3.508140528264174e-001 -4.756175123563360e-001
-1.785672580186277e-001 -7.767940770279459e-001
-1.756867667450552e-001 -8.706041810695682e-001
-9.133993590923551e-001 -2.000572791433510e-001
-1.728944335702889e-001 -9.542782383197291e-001
-6.102104267364100e-001 -2.254876657488258e-001
-8.267550230428373e-001 -2.001630405230446e-001
-4.804547338545898e-001 -3.005870722496439e-001
-3.940100286349309e-001 -4.006173530085464e-001
-7.400961785294480e-001 -2.003072381598843e-001
-2.212475559639041e-001 -6.507917669147354e-001
-2.643784220121920e-001 -5.756660673155877e-001
-6.534768842750309e-001 -2.004438048689706e-001
-1.782739863407226e-001 -7.262195529672604e-001
-4.372060754557896e-001 -3.256174108279551e-001
-3.075657436752632e-001 -5.006485265233946e-001
-9.567028891199113e-001 -1.750249154883563e-001
-1.424125218926737e-001 -9.059579292556247e-001
-3.507613554856169e-001 -4.256477000710916e-001
-8.700780920600079e-001 -1.751051496764862e-001
-1.355865038766838e-001 -8.017506397834646e-001
-1.499999999999998e-001 -1.000000000000000e+000
-1.365748192164800e-001 -8.517827119167096e-001
-5.236515159579281e-001 -2.255863482714297e-001
-7.834119760121973e-001 -1.752391725124953e-001
-3.939574310081073e-001 -3.506477264697554e-001
-6.967606539831414e-001 -1.753893759225724e-001
-5.669033614977572e-001 -2.005532171670386e-001
-2.211426092440537e-001 -6.007185610663582e-001
-1.780510345663221e-001 -6.759037898657670e-001
-4.804021745708353e-001 -2.506173723522520e-001
-2.643183273100781e-001 -5.256811581887889e-001
-1.000000000000000e+000 -1.500000000000004e-001
-1.351411314466816e-001 -7.513423062439414e-001
-3.075127112027337e-001 -4.506780947496929e-001
-6.101617983434141e-001 -1.755151937360224e-001
-9.133954154513241e-001 -1.500591954596652e-001
-1.226617331800810e-001 -9.565384520804291e-001
-4.371534723503814e-001 -2.756477756407502e-001
-8.267408034432823e-001 -1.501706535018875e-001
-3.507087614236823e-001 -3.756780706394817e-001
-7.400662094880301e-001 -1.503239081117896e-001
-6.534332537618930e-001 -1.504685602547303e-001
-1.779145427595138e-001 -6.257794210278756e-001
-3.939048357113981e-001 -3.006780940528854e-001
-2.210728085902327e-001 -5.507167981748960e-001
-9.443683696451120e-002 -8.782803704779973e-001
-1.348618214903196e-001 -7.010069441240200e-001
-9.269521805908071e-002 -8.272825091540956e-001
-2.642641963713836e-001 -4.757087243043043e-001
-9.567019503933962e-001 -1.250259033709281e-001
-5.235996028120947e-001 -1.756161866011187e-001
-3.074600826432328e-001 -4.007084288881471e-001
-9.200376470035791e-002 -7.765703936122357e-001
-4.803497396591465e-001 -2.006475861947162e-001
-9.658556039446023e-002 -9.215662225071712e-001
-8.700715701501321e-001 -1.251099126204035e-001
-9.999999999999976e-002 -1.000000000000000e+000
-5.668529202445853e-001 -1.505821584154259e-001
-7.833922841233933e-001 -1.252513729643090e-001
-3.506561716908534e-001 -3.257084343189429e-001
-6.967247382717532e-001 -1.254104068226543e-001
-4.371009050892439e-001 -2.256781099695429e-001
-1.778302527202792e-001 -5.757557564465486e-001
-1.346924312256562e-001 -6.508435830241097e-001
-2.210160414983025e-001 -5.007399310693792e-001
-6.101146058291530e-001 -1.255424224785869e-001
-9.166240046055613e-002 -7.261378340657259e-001
-1.000000000000000e+000 -1.000000000000003e-001
-3.938522475187796e-001 -2.507084534278005e-001
-2.642114103566397e-001 -4.257388006838209e-001
-9.133935664831782e-001 -1.000623319458157e-001
-7.400270773466518e-002 -9.575383318125105e-001
-3.074074932440665e-001 -3.507387913625111e-001
-4.896014678744051e-002 -8.537573254656268e-001
-8.267304473155305e-001 -1.001793953523131e-001
-7.400401185111855e-001 -1.003408578200949e-001
-4.864048925501071e-002 -8.020685115805130e-001
-4.935101766457939e-002 -9.097467260842594e-001
-6.533918296424411e-001 -1.004931490373913e-001
-3.506035827719696e-001 -2.757387966118410e-001
-4.802974225651693e-001 -1.506777499423226e-001
-1.345907923957435e-001 -6.007969940986625e-001
-1.777686267241728e-001 -5.257719311749317e-001
-5.235480044260208e-001 -1.256459343454893e-001
-9.146761642407007e-002 -6.759195058912444e-001
-2.209627749680948e-001 -4.507692282945586e-001
-4.370483729618382e-001 -1.757084214544497e-001
-9.567018799478907e-001 -7.502760145077918e-002
-4.839338393919015e-002 -7.513668930282716e-001
-2.641588118698387e-001 -3.757691527375361e-001
-5.668031636907277e-001 -1.006109861761390e-001
-8.700677698102655e-001 -7.511602469914086e-002
-4.999999999999971e-002 -1.000000000000000e+000
-3.937996669949754e-001 -2.007388057494488e-001
-3.073549048957007e-001 -3.007691533762401e-001
-7.833763247765239e-001 -7.526433435009226e-002
-6.966916607832562e-001 -7.543147697908853e-002
-6.100686009399278e-001 -7.556954155609188e-002
-1.345223060576446e-001 -5.508046090567151e-001
-9.135194509326611e-002 -6.258427558314920e-001
-1.777142546607389e-001 -4.757997695584192e-001
-3.505509952233785e-001 -2.257691573702947e-001
-2.538780260531326e-002 -9.575492406491667e-001
-4.886372962663277e-003 -8.273534254424487e-001
-4.822049758673511e-002 -7.010369520020077e-001
-3.821146577275551e-003 -8.783367259519238e-001
-1.000000000000000e+000 -5.000000000000027e-002
-2.209101310926696e-001 -4.007995158929802e-001
-9.133930835240275e-001 -5.006623500567049e-002
-2.641062234024755e-001 -3.257995145795262e-001
-4.802452082723774e-001 -1.007078958086648e-001
-5.013393304678961e-003 -7.766517073559278e-001
-8.267228220004524e-001 -5.018877661010000e-002
-4.369958695519188e-001 -1.257387240921467e-001
-7.400168754184037e-001 -5.035787010237264e-002
-3.073023166619324e-001 -2.507995151477085e-001
-5.234966585939749e-001 -7.567565604566345e-002
-6.533520302291975e-001 -5.051760052658416e-002
-2.287724161148500e-003 -9.216061410973072e-001
-9.127672288467860e-002 -5.758386414480109e-001
-3.937470926458668e-001 -1.507691551370418e-001
-1.344659701151459e-001 -5.008304163661971e-001
-4.810706340284435e-002 -6.509060418716608e-001
-1.776614563730750e-001 -4.258298831785888e-001
-5.667538852078143e-001 -5.063977325393801e-002
-4.936681830063930e-003 -7.262252353980746e-001
-9.567022986581134e-001 -2.502947626970296e-002
2.220446049250313e-016 -1.000000000000000e+000
-3.504984085648533e-001 -1.757995172512586e-001
-2.208575415254103e-001 -3.508298764557529e-001
-8.700655622821966e-001 -2.512234290081332e-002
-2.640536351003602e-001 -2.758298764602697e-001
-7.833625933552354e-001 -2.527719995020870e-002
3.867456974287451e-002 -8.519108128539803e-001
-6.966602258446265e-001 -2.545236678826612e-002
-6.100232093030609e-001 -2.559662821057281e-002
3.830032323056266e-002 -8.019030596984297e-001
-3.072497284942909e-001 -2.008298767834890e-001
-9.121794759433340e-002 -5.258612018617040e-001
-4.802997040039425e-002 -6.008781600960502e-001
2.328387272564828e-002 -9.565741064975666e-001
-1.344128067839535e-001 -4.508602466020268e-001
4.376115840163831e-002 -9.060542079424907e-001
-4.369433885954908e-001 -7.576902979188513e-002
-4.849603465017460e-003 -6.760096648115465e-001
-4.801930541989163e-001 -5.073805271968051e-002
-1.776088595946492e-001 -3.758602383100687e-001
-1.000000000000000e+000 -2.220446049250313e-016
-3.936945236941667e-001 -1.007995049835608e-001
-9.133932871581777e-001 -6.983803352170366e-005
3.834546495777852e-002 -7.515104028814744e-001
-2.208049532200927e-001 -3.008602383331844e-001
-5.234454047082336e-001 -2.570542090363104e-002
-8.267164881806668e-001 -1.976260875065592e-004
-2.640010467949285e-001 -2.258602383361837e-001
-7.399947767353536e-001 -3.744735137764532e-004
-3.504458223567712e-001 -1.258298771775139e-001
-6.533126477475545e-001 -5.419936465284892e-004
-4.796985881972358e-002 -5.508930944677274e-001
-5.667045845470911e-001 -6.686737769488477e-004
-9.116421087327016e-002 -4.758905879877162e-001
-4.779515783185921e-003 -6.259338275678591e-001
-1.343601780674559e-001 -4.008905992044234e-001
-3.071971403123475e-001 -1.508602384507585e-001
5.000000000000027e-002 -1.000000000000000e+000
3.841407021446309e-002 -7.011838016440849e-001
8.100458061378378e-002 -8.273990095654743e-001
-9.567027846596132e-001 2.496910720359297e-002
7.754173804825425e-002 -8.707848221720965e-001
-1.775562713398200e-001 -3.258906002075940e-001
-8.700635250158347e-001 2.487234585866344e-002
7.355278742935319e-002 -9.543503196633640e-001
-2.207523649135857e-001 -2.508906002086799e-001
-7.833488812814787e-001 2.471070682322465e-002
8.154584261877541e-002 -7.770380101728289e-001
-4.368909059330622e-001 -2.579935691658738e-002
-6.966284556138954e-001 2.452686563776105e-002
-2.639484584877707e-001 -1.758906002100109e-001
-3.936419562609261e-001 -5.082985975961737e-002
-6.099773799132674e-001 2.437604522427500e-002
-4.791563621739276e-002 -5.009210350394553e-001
-4.801408453735196e-001 -7.682807359627024e-004
-4.720925170836332e-003 -5.759298284562860e-001
-9.111149894870767e-002 -4.259209516045015e-001
-3.503932366612793e-001 -7.586023802597221e-002
3.847452316442641e-002 -6.510243149663694e-001
-1.343075894591595e-001 -3.509209620820442e-001
9.924598500633613e-002 -9.090549587012570e-001
-5.233939120854733e-001 2.426462940986735e-002
-1.000000000000000e+000 4.999999999999971e-002
8.166893839651143e-002 -7.264781552403671e-001
-9.133929724938096e-001 4.992756252225594e-002
-3.071445521192699e-001 -1.008906002322501e-001
-1.775036830325353e-001 -2.759209620822406e-001
-8.267088903273295e-001 4.979446899602354e-002
-2.206997766062724e-001 -2.009209620829560e-001
-7.399709001276132e-001 4.960899044743097e-002
-6.532717657114108e-001 4.943309048287683e-002
1.249403818557742e-001 -8.596815654443244e-001
1.000000000000003e-001 -1.000000000000000e+000
-5.666545316274496e-001 4.930199193229671e-002
-4.666936320139541e-003 -5.259523378863667e-001
1.249402651170746e-001 -8.033842078917152e-001
-4.786282556291171e-002 -4.509512830057620e-001
-2.638958701799683e-001 -1.259209620833336e-001
3.852923996959138e-002 -6.009789838702196e-001
-9.105890763539398e-002 -3.759513238568059e-001
8.172875684594925e-002 -6.761709631826314e-001
-3.935893774269365e-001 -8.602295966734334e-004
-1.342550011514757e-001 -3.009513239561265e-001
-9.567027585909527e-001 7.496824127927564e-002
-4.368383636726375e-001 2.417026187658440e-002
1.249755004313183e-001 -9.544728357093506e-001
-8.700596453112063e-001 7.486791583327172e-002
-3.503406499165305e-001 -2.589060170369751e-002
1.249574755446336e-001 -7.519337656038424e-001
-1.774510947249650e-001 -2.259513239563966e-001
-7.833320797750557e-001 7.469862080468430e-002
-4.800884235371038e-001 4.920133388313494e-002
-2.206471882985472e-001 -1.509513239567178e-001
-6.965936505915667e-001 7.450524074571313e-002
-6.099297670560409e-001 7.434789777161253e-002
-3.070919638823688e-001 -5.092096232732216e-002
-4.614142436981282e-003 -4.759816855681836e-001
3.858207511526612e-002 -5.509868303427269e-001
1.506630994090205e-001 -9.090738247270892e-001
-4.781022570713714e-002 -4.009816840295071e-001
-5.233418068721628e-001 7.423431882414545e-002
8.178005472507534e-002 -6.260507858884404e-001
-9.100631927031853e-002 -3.259816858300182e-001
-2.638432818685696e-001 -7.595132396272253e-002
1.249894917545906e-001 -7.013771135794254e-001
-1.000000000000000e+000 9.999999999999976e-002
1.688703924250142e-001 -8.274596707627722e-001
-9.133908404297153e-001 9.992545371121643e-002
-1.342024128437192e-001 -2.509816858300800e-001
-8.266973690747433e-001 9.978630878729278e-002
1.500000000000004e-001 -1.000000000000000e+000
-1.773985064171973e-001 -1.759816858302619e-001
-7.399423792864487e-001 9.959110575584020e-002
1.683477616615592e-001 -7.771112236974518e-001
-6.532276584284163e-001 9.940677197625251e-002
-3.935367690014135e-001 4.910937384783812e-002
-5.666031600152185e-001 9.927194860830851e-002
-3.502880574589263e-001 2.407902838496276e-002
-2.205945999906608e-001 -1.009816858303599e-001
1.723418444140924e-001 -8.708342510389768e-001
3.863458756564486e-002 -5.010126160949092e-001
-4.561544174485755e-003 -4.260120384924127e-001
-4.367857071496709e-001 7.413980006915488e-002
8.183134617300129e-002 -5.760286183657460e-001
-4.775763738907917e-002 -3.510120477038343e-001
1.250321222234647e-001 -6.511498691118162e-001
-3.070393751491393e-001 -9.513253749155806e-004
1.763985379722839e-001 -9.543696644920852e-001
-9.095373096246966e-002 -2.760120477038385e-001
-9.567015167043859e-001 1.249673604450264e-001
-4.800356963100214e-001 9.917076014396299e-002
1.682747495768231e-001 -7.265605017141837e-001
-8.700517072952274e-001 1.248627157213486e-001
-1.341498245358908e-001 -2.010120477039171e-001
-2.637906935296330e-001 -2.598168589008140e-002
-7.833091893701579e-001 1.246844397865467e-001
-1.773459181093271e-001 -1.260120477040041e-001
-6.965536613356522e-001 1.244812994799280e-001
-6.098796135979599e-001 1.243184300153326e-001
-5.232890051911148e-001 1.242036098391334e-001
3.868714068976208e-002 -4.510424239189155e-001
8.188338380613691e-002 -5.260451511265632e-001
2.061484094612610e-001 -9.061147464052901e-001
2.115823610985939e-001 -8.020335829708608e-001
-4.508955448824442e-003 -3.760424094756987e-001
-2.205420116827340e-001 -5.101204770401894e-002
1.250808143691747e-001 -6.010808285102541e-001
2.112064765914412e-001 -8.520108918413044e-001
-4.770504908119725e-002 -3.010424095775943e-001
1.682907336422428e-001 -6.762585728174484e-001
-3.502354555921551e-001 7.404865027357323e-002
-1.000000000000000e+000 1.499999999999998e-001
-9.133856423919039e-001 1.499222817203956e-001
-9.090114265460127e-002 -2.260424095776266e-001
2.000000000000004e-001 -1.000000000000000e+000
-3.934841245047518e-001 9.907895250697567e-002
-8.266796987475821e-001 1.497755499857697e-001
-3.069867850587736e-001 4.901830994040857e-002
2.115706408678351e-001 -7.516644749958310e-001
-1.340972362280131e-001 -1.510424095776835e-001
-7.399072111950254e-001 1.495700510190050e-001
-6.531794816881881e-001 1.493783747620334e-001
-4.367329524232597e-001 1.241092787434978e-001
-1.772933298014183e-001 -7.604240957771675e-002
-5.665504212415010e-001 1.492411965567926e-001
-2.637381051012309e-001 2.398795202708458e-002
8.193583817621095e-002 -4.760730303437758e-001
3.873972608064863e-002 -4.010727707331480e-001
1.251322184995481e-001 -5.510806826479104e-001
-4.456367199904629e-003 -3.260727714513309e-001
2.266719001855279e-001 -9.566082655105825e-001
-4.799827414326008e-001 1.491400814644825e-001
1.683318074388648e-001 -6.261407935236750e-001
-4.765246077331155e-002 -2.510727714513515e-001
-2.204894233748082e-001 -1.042409577715477e-003
-9.566986325656209e-001 1.749655916787468e-001
2.115651511598900e-001 -7.013532768488454e-001
-8.700386057975674e-001 1.748546846301617e-001
-9.084855434671239e-002 -1.760727714513874e-001
2.537269588651276e-001 -8.784526501711692e-001
2.547779338846033e-001 -8.275168740829871e-001
-7.832791772671270e-001 1.746662815449574e-001
-1.340446479201095e-001 -1.010727714514210e-001
-6.965082804495326e-001 1.744543084737242e-001
-6.098272817254192e-001 1.742877573133425e-001
2.549173493811798e-001 -7.768571746662213e-001
-5.232358088250927e-001 1.741727244520441e-001
-3.501828478928774e-001 1.240182683691653e-001
8.198840788539478e-002 -4.261031410563049e-001
-3.069341933697365e-001 9.898794398422602e-002
1.251845435241890e-001 -5.011042127180315e-001
-1.772407414935009e-001 -2.607277145143376e-002
3.879231468140023e-002 -3.511031333250539e-001
2.522184999216499e-001 -9.216807608046773e-001
1.683812774227968e-001 -5.761194569982897e-001
-3.934314654009056e-001 1.490485294420763e-001
-4.403778892015322e-003 -2.761031333250752e-001
2.115896219238288e-001 -6.512019028858989e-001
-2.636855165351698e-001 7.395758970516698e-002
2.500000000000004e-001 -1.000000000000000e+000
-1.000000000000000e+000 1.999999999999998e-001
-4.759987246541678e-002 -2.011031333251027e-001
-9.133766667678133e-001 1.999165012506079e-001
-8.266550504490570e-001 1.997602121777975e-001
-4.366801903659472e-001 1.740787768566052e-001
2.548849330779497e-001 -7.264629855376749e-001
-9.079596603880773e-002 -1.261031333251322e-001
-2.204368350668900e-001 4.892722854856466e-002
-7.398653150358179e-001 1.995447346400579e-001
-6.531278845234904e-001 1.993479043878824e-001
-1.339920596121957e-001 -5.110313332515129e-002
-5.664969214347501e-001 1.992100614522569e-001
1.252370931539585e-001 -4.511335670297294e-001
8.204099645496317e-002 -3.761334952077855e-001
-4.799297943415385e-001 1.991094610344210e-001