VARIABLES = X, Y
ZONE I=6159, J=12028, F=FEPOINT
-9.817972508106658e-001 -9.818852216727008e-001
-1.000000000000000e+000 -1.000000000000000e+000
-9.720000000000000e-001 -1.000000000000000e+000
-1.000000000000000e+000 -9.724444444444444e-001
-9.592973004699138e-001 -9.774815661879565e-001
-9.777101757852570e-001 -9.594832245677530e-001
-9.440061728395062e-001 -1.000000000000000e+000
-1.000000000000000e+000 -9.448827160493827e-001
-9.490558575828555e-001 -9.482016656060507e-001
-9.312586731321142e-001 -9.752723647623899e-001
-9.761584013754817e-001 -9.319709142053049e-001
-9.160185185185186e-001 -1.000000000000000e+000
-1.000000000000000e+000 -9.173148148148147e-001
-9.168349957233723e-001 -9.503752220094914e-001
-9.535388198314702e-001 -9.176276964548696e-001
-9.023824427751820e-001 -9.754777753196620e-001
-9.286848101695596e-001 -9.250749871750433e-001
-9.767053955212915e-001 -9.042955265722489e-001
-8.880370370370371e-001 -1.000000000000000e+000
-8.880672815478494e-001 -9.512793792745903e-001
-1.000000000000000e+000 -8.897407407407407e-001
-9.016080726483026e-001 -9.267266898678027e-001
-9.364307667455762e-001 -9.041961175748205e-001
-9.542791459695327e-001 -8.919851517078966e-001
-8.741006286281494e-001 -9.757914144306964e-001
-9.763088568540638e-001 -8.771582239930011e-001
-9.146976584646813e-001 -9.031338023927710e-001
-8.735190424961585e-001 -9.271671090188464e-001
-8.600617283950618e-001 -1.000000000000000e+000
-8.599599278915303e-001 -9.518479136406364e-001
-1.000000000000000e+000 -8.621604938271605e-001
-9.309976331899982e-001 -8.830751513819171e-001
-8.878412444160969e-001 -9.029860739163519e-001
-9.517402056794070e-001 -8.655988830707608e-001
-8.461005816576800e-001 -9.759902818001573e-001
-9.751541542707948e-001 -8.492540164389020e-001
-8.457698134077796e-001 -9.284200356962232e-001
-9.026049497662249e-001 -8.765053649949538e-001
-8.578257990929155e-001 -9.013402931215173e-001
-8.320925925925926e-001 -1.000000000000000e+000
-8.321999161236350e-001 -9.521560208710853e-001
-9.262200269998809e-001 -8.569851844539597e-001
-1.000000000000000e+000 -8.345740740740741e-001
-9.475002066767095e-001 -8.352437161781484e-001
-8.767036595304291e-001 -8.826363130130185e-001
-8.182031195791586e-001 -9.760247494318089e-001
-8.323527213210937e-001 -9.091852950638586e-001
-8.187537147134579e-001 -9.284692787566843e-001
-9.754005930112170e-001 -8.209166239018502e-001
-9.025029082231283e-001 -8.468773300852060e-001
-8.791632006821352e-001 -8.595444697794309e-001
-8.559639083559437e-001 -8.724450006175215e-001
-8.041296296296296e-001 -1.000000000000000e+000
-8.325327762794700e-001 -8.860072224301084e-001
-9.219374072619310e-001 -8.346407182495927e-001
-8.044610987128019e-001 -9.519853317205010e-001
-1.000000000000000e+000 -8.069814814814815e-001
-9.531598336974554e-001 -8.060821054358117e-001
-8.068956142807950e-001 -9.013909608333163e-001
-7.902878730276223e-001 -9.759463282121592e-001
-9.289551301506833e-001 -8.134414623780984e-001
-8.804934877153685e-001 -8.327565238694637e-001
-8.565798588729948e-001 -8.457096425223832e-001
-7.909361541970759e-001 -9.274512528447471e-001
-9.045390239283252e-001 -8.207194737711908e-001
-9.766625325061608e-001 -7.935140265049657e-001
-8.328643190637680e-001 -8.589923102357039e-001
-7.761728395061729e-001 -1.000000000000000e+000
-8.092721872661334e-001 -8.723175874464162e-001
-7.765132821549918e-001 -9.517716389586744e-001
-9.359334988696446e-001 -7.926152839116707e-001
-1.000000000000000e+000 -7.793827160493827e-001
-7.765051445233934e-001 -9.033774697876690e-001
-9.547103660686577e-001 -7.809724338477473e-001
-8.575730027206716e-001 -8.183839648722131e-001
-9.108464607349954e-001 -7.914970943872595e-001
-8.826007290343746e-001 -8.050738124325455e-001
-7.623425460556726e-001 -9.758764410199180e-001
-7.880503322242899e-001 -8.827042991685110e-001
-8.333483670142701e-001 -8.317945374400798e-001
-7.626830836233155e-001 -9.276440791032986e-001
-8.094471736124146e-001 -8.453527263572959e-001
-9.768473519061797e-001 -7.668870267287703e-001
-9.322762882209705e-001 -7.712074156381253e-001
-7.482222222222222e-001 -1.000000000000000e+000
-7.859064503297434e-001 -8.592580075515701e-001
-7.485638099173557e-001 -9.517249573575052e-001
-8.585457599782905e-001 -7.905000586513801e-001
-7.617959128618698e-001 -8.771424722197422e-001
-8.838121517777271e-001 -7.763996084165082e-001
-7.488810187518938e-001 -9.039525640774894e-001
-1.000000000000000e+000 -7.517777777777777e-001
-8.339343468986633e-001 -8.042053336334997e-001
-9.537149824399549e-001 -7.556833926168428e-001
-9.082361952720391e-001 -7.609729671608617e-001
-8.097011451667931e-001 -8.178665029561910e-001
-7.344133913478365e-001 -9.758325866812205e-001
-7.856181841534644e-001 -8.317358271106410e-001
-7.349378571171875e-001 -9.276550736012158e-001
-9.762014954287951e-001 -7.400789031162485e-001
-7.613394889356445e-001 -8.462974809238374e-001
-8.591436840946535e-001 -7.623037414010221e-001
-9.306904250887696e-001 -7.455186795123042e-001
-7.357462314451426e-001 -8.843123399493408e-001
-8.344729796563813e-001 -7.763393528187428e-001
-7.202777777777778e-001 -1.000000000000000e+000
-7.206985320350991e-001 -9.516350558475115e-001
-8.839267452626167e-001 -7.477616067838558e-001
-8.100762495348216e-001 -7.901179627449754e-001
-7.362888156882182e-001 -8.602712816537897e-001
-7.218115089505036e-001 -9.037544112658354e-001
-1.000000000000000e+000 -7.241666666666666e-001
-7.858231524482476e-001 -8.038761788173012e-001
-9.519634263620430e-001 -7.294689435211082e-001
-9.084084875826970e-001 -7.332105140698747e-001
-7.615200590240415e-001 -8.177921879447222e-001
-7.064917912385950e-001 -9.757963023454784e-001
-7.071967483243894e-001 -9.273693254280934e-001
-8.349062438546353e-001 -7.483475347749263e-001
-8.596015024818350e-001 -7.340440016389490e-001
-7.369252904710013e-001 -8.317561153127864e-001
-9.748983552547260e-001 -7.125103157393032e-001
-8.104639480570500e-001 -7.622646296604946e-001
-7.100175730157695e-001 -8.766596792875473e-001
-9.300827350236418e-001 -7.224014446160434e-001
-7.861606012508090e-001 -7.760115222431963e-001
-6.923395061728395e-001 -1.000000000000000e+000
-8.849006560452376e-001 -7.191463736468582e-001
-6.927539335847502e-001 -9.515369402188948e-001
-7.618773817666943e-001 -7.897417680617081e-001
-6.941808633393668e-001 -9.028262187352905e-001
-7.118728523332917e-001 -8.457366128055194e-001
-1.000000000000000e+000 -6.965493827160494e-001
-9.465731524277379e-001 -7.005305182951355e-001
-7.374916857549346e-001 -8.034938635625924e-001
-8.352505557964175e-001 -7.203187882384889e-001
-9.131657749957760e-001 -7.030273421997831e-001
-8.108144798072386e-001 -7.343735816711665e-001
-6.785589724268825e-001 -9.758222531933124e-001
-6.789100586142617e-001 -9.269883865309952e-001
-8.599164300315892e-001 -7.057685231604204e-001
-7.865086025380021e-001 -7.481641082939904e-001
-7.129175657897054e-001 -8.171988429217142e-001
-9.748180925191382e-001 -6.842293802181695e-001
-6.834385831767420e-001 -8.818311950591886e-001
-6.866598766114577e-001 -8.582326266565086e-001
-7.622506441609554e-001 -7.618501071183017e-001
-8.848557996645869e-001 -6.903850616831274e-001
-7.379667591251926e-001 -7.755101638043177e-001
-6.644074074074073e-001 -1.000000000000000e+000
-6.647773362914459e-001 -9.517159193952388e-001
-6.636680615471983e-001 -9.005845451879361e-001
-9.297910000742741e-001 -6.812115102808504e-001
-8.111065780341994e-001 -7.064749579769476e-001
-6.882106167274594e-001 -8.305923070209159e-001
-1.000000000000000e+000 -6.689259259259259e-001
-8.354507207339098e-001 -6.923108697487120e-001
-9.515940545331825e-001 -6.706168450965734e-001
-7.136040363846791e-001 -7.891453853755986e-001
-7.868307914962861e-001 -7.203231546835936e-001
-9.079861030079583e-001 -6.736752699351981e-001
-6.506478008608919e-001 -9.759328119223890e-001
-7.625973858107460e-001 -7.340183655000757e-001
-8.597891906582058e-001 -6.776213764455613e-001
-6.508982158194258e-001 -9.280449001042185e-001
-6.624824746018581e-001 -8.710481667153919e-001
-7.383651273670421e-001 -7.476550966170977e-001
-6.891564393195241e-001 -8.026949417140523e-001
-9.759224002534971e-001 -6.562021514226486e-001
-6.636257235615263e-001 -8.437599390801532e-001
-7.141005109275862e-001 -7.612672927249853e-001
-8.836695971337174e-001 -6.622606831064431e-001
-8.113322973835215e-001 -6.785926477112524e-001
-9.297808009771237e-001 -6.578830019159342e-001
-6.364814814814814e-001 -1.000000000000000e+000
-6.369501755432460e-001 -9.520430751916452e-001
-7.871182828271981e-001 -6.924828733221560e-001
-6.375075122725484e-001 -9.086093787747684e-001
-6.380646748653388e-001 -8.848582882909147e-001
-8.355140363625025e-001 -6.643868277672254e-001
-6.646809915839241e-001 -8.161316145861930e-001
-7.629139546579339e-001 -7.062020772548526e-001
-1.000000000000000e+000 -6.412962962962963e-001
-6.897884743217163e-001 -7.748496293076945e-001
-9.527541396880294e-001 -6.434925939752717e-001
-7.387120880068799e-001 -7.198451522868000e-001
-9.068135563914730e-001 -6.466284567464586e-001
-6.390985226244843e-001 -8.571130411901025e-001
-8.595137811009167e-001 -6.497316627895013e-001
-6.227570129982332e-001 -9.760412940024071e-001
-7.144947522870631e-001 -7.334562209017058e-001
-6.235435881027328e-001 -9.283632376036528e-001
-6.654375998723766e-001 -7.883881781751213e-001
-7.873777454772538e-001 -6.646486269515265e-001
-6.402130034836371e-001 -8.295206480689231e-001
-9.763744239650939e-001 -6.286540433181664e-001
-8.115191469644487e-001 -6.507468193447731e-001
-6.902500138635869e-001 -7.470480791703191e-001
-6.112409121878896e-001 -9.011327091457046e-001
-7.632071434054674e-001 -6.783851457904967e-001
-8.831598212141726e-001 -6.346484018308388e-001
-9.297842824992650e-001 -6.313123362722084e-001
-6.085617283950617e-001 -1.000000000000000e+000
-6.091069324856067e-001 -9.521600619046567e-001
-6.141130330551928e-001 -8.705435037185828e-001
-7.390278704036540e-001 -6.920421130774531e-001
-8.355629599033731e-001 -6.365614552926989e-001
-6.410677872997136e-001 -8.018846448014821e-001
-6.659758917187206e-001 -7.606217400156026e-001
-7.148367398671535e-001 -7.056629305724927e-001
-1.000000000000000e+000 -6.136604938271604e-001
-9.530495333574888e-001 -6.162142662727795e-001
-6.157073439417661e-001 -8.428100734628035e-001
-9.064988729471449e-001 -6.193459492644303e-001
-6.906262408310547e-001 -7.192635440259781e-001
-8.594076430307029e-001 -6.219985181177224e-001
-5.955146947703400e-001 -9.280705361833245e-001
-7.876282157566611e-001 -6.368294378365292e-001
-5.948277875896965e-001 -9.761007929545297e-001
-7.634875663963415e-001 -6.505673361504448e-001
-6.416798843744101e-001 -7.741764308823630e-001
-6.167028411115697e-001 -8.153143487140087e-001
-5.889371488407816e-001 -8.814955685191482e-001
-8.117114296939949e-001 -6.229413737755682e-001
-7.393259998627558e-001 -6.642335606546323e-001
-9.765031666549181e-001 -6.011074810690606e-001
-6.663933401046743e-001 -7.328496730940034e-001
-9.297592387078252e-001 -6.040092147549571e-001
-8.829982871510712e-001 -6.070557176160213e-001
-7.151521532404358e-001 -6.778666568556666e-001
-5.808434979817927e-001 -9.056087310560518e-001
-5.913488634637689e-001 -8.554764566857292e-001
-5.810821932960392e-001 -9.522411499433640e-001
-5.806481481481481e-001 -1.000000000000000e+000
-8.356693012080832e-001 -6.087952755291505e-001
-6.909625877525704e-001 -6.914783452633529e-001
-6.173794786311028e-001 -7.877018283054835e-001
-6.421409280609860e-001 -7.464253081096843e-001
-5.924400027278282e-001 -8.285580741889839e-001
-1.000000000000000e+000 -5.860185185185185e-001
-9.530859544537112e-001 -5.887028173967456e-001
-7.637681050576703e-001 -6.227554042231902e-001
-6.667536358659319e-001 -7.050729255944784e-001
-7.878881407553013e-001 -6.090302512442106e-001
-9.063840287290642e-001 -5.918195996780705e-001
-8.594273398064775e-001 -5.942927508929313e-001
-7.396171716992436e-001 -6.364202869085300e-001
-5.672715073503356e-001 -9.286404679507155e-001
-5.668488949617930e-001 -9.761110035353918e-001
-5.678126168647131e-001 -8.883299455387696e-001
-5.681467696048571e-001 -8.673054270309127e-001
-7.154539501156304e-001 -6.500604560651089e-001
-6.178779203824568e-001 -7.599905888541301e-001
-5.931197826742608e-001 -8.011661396456922e-001
-8.119304804025228e-001 -5.951663861876861e-001
-6.425259702113760e-001 -7.186559049808068e-001
-9.765023666191283e-001 -5.734781634091696e-001
-6.912790424009255e-001 -6.636834539969535e-001
-9.296804352034268e-001 -5.764181159624751e-001
-5.685669359638302e-001 -8.415935377241576e-001
-8.829497555906016e-001 -5.793895097197196e-001
-6.670874360452498e-001 -6.772887054362814e-001
-5.542766003955776e-001 -9.054820544268031e-001
-8.358225195416429e-001 -5.810512450289050e-001
-5.529846959882768e-001 -9.521910595548153e-001
-5.527407407407408e-001 -1.000000000000000e+000
-7.640595460636114e-001 -5.949570476514358e-001
-7.399116302822516e-001 -6.086086178510718e-001
-5.936246562592592e-001 -7.735358781141820e-001
-6.182854677517332e-001 -7.322322190292802e-001
-5.690005161247641e-001 -8.145619836373325e-001
-1.000000000000000e+000 -5.583703703703704e-001
-9.530045829512953e-001 -5.610081183690309e-001
-6.428772366906509e-001 -6.908778709435714e-001
-7.881661546266875e-001 -5.812521914773773e-001
-7.157513365783679e-001 -6.222457225858383e-001
-5.468940860987460e-001 -8.812156070343132e-001
-9.062721997890386e-001 -5.641223825482219e-001
-8.594882549156661e-001 -5.665716252744005e-001
-6.915846596524998e-001 -6.358759554100987e-001
-5.453231139384532e-001 -8.550673937005104e-001
-5.390260671558321e-001 -9.278919424763342e-001
-5.388665073416267e-001 -9.760574831346425e-001
-8.121722463559232e-001 -5.674116797341553e-001
-6.674067525552804e-001 -6.494924748529370e-001
-5.940427557517308e-001 -7.458015821589967e-001
-5.694193604261057e-001 -7.870533391058697e-001
-6.186517419917438e-001 -7.044572194153266e-001
-9.764371695884159e-001 -5.457459217706963e-001
-5.451175845451538e-001 -8.280439192478761e-001
-9.295057058833608e-001 -5.486134100753711e-001
-7.402178783314249e-001 -5.808076677956433e-001
-6.432118692586422e-001 -6.630912495366289e-001
-8.828822724922715e-001 -5.516521257750729e-001
-5.239637289592273e-001 -9.006871583360786e-001
-7.643675470084550e-001 -5.671772509016521e-001
-8.359903139669763e-001 -5.533189641401743e-001
-7.160531489098502e-001 -5.944313424988600e-001
-5.249358787190206e-001 -9.520128293938149e-001
-5.248395061728395e-001 -1.000000000000000e+000
-5.698141271731306e-001 -7.593589377805211e-001
-6.918872946672147e-001 -6.080588530625559e-001
-5.944185105455971e-001 -7.180316999742504e-001
-5.453043622677082e-001 -8.005777376429930e-001
-5.220316710386712e-001 -8.698375818207689e-001
-7.884616557548848e-001 -5.534948362548775e-001
-1.000000000000000e+000 -5.307160493827161e-001
-6.189994401576818e-001 -6.766759921442125e-001
-9.528171673118786e-001 -5.330966660678158e-001
-6.677175274477873e-001 -6.216823681122052e-001
-9.060366615619911e-001 -5.362720739394646e-001
-5.213617727827814e-001 -8.418735837371699e-001
-8.595200959558017e-001 -5.388505972857374e-001
-5.109372254003177e-001 -9.280194145607608e-001
-6.435356612872335e-001 -6.352931603864379e-001
-8.124249659938932e-001 -5.396777524701232e-001
-5.109303213838948e-001 -9.759564428555446e-001
-5.701877264608511e-001 -7.316000945243181e-001
-5.456189704307827e-001 -7.729065787631656e-001
-7.405409501142503e-001 -5.530264882058727e-001
-7.163677813495065e-001 -5.666287343696023e-001
-5.947748803445069e-001 -6.902526546746880e-001
-5.212786250679763e-001 -8.141968672511387e-001
-9.763263076201034e-001 -5.178639649874758e-001
-6.921953652554448e-001 -5.802421984582856e-001
-4.975615688533203e-001 -8.839499059720115e-001
-9.291303786007968e-001 -5.204990366411373e-001
-6.193365776623468e-001 -6.488876337354005e-001
-7.646925560394419e-001 -5.394185325540770e-001
-8.826815194066954e-001 -5.238936027961483e-001
-4.974163908999968e-001 -9.079835955887223e-001
-8.361457359755521e-001 -5.256185565004723e-001
-6.680263366132370e-001 -5.938645794926199e-001
-4.970622434706933e-001 -9.518005894797844e-001
-4.969444444444445e-001 -1.000000000000000e+000
-4.974481205958368e-001 -8.558573789595227e-001
-5.459696080967636e-001 -7.451581598501092e-001
-5.705466076433897e-001 -7.038245068064098e-001
-7.887705897090133e-001 -5.257583870488713e-001
-5.214672433433567e-001 -7.864710743982980e-001
-6.438529753857346e-001 -6.074834472509653e-001
-5.951214664448440e-001 -6.624699789815466e-001
-1.000000000000000e+000 -5.030555555555556e-001
-9.525008681505325e-001 -5.048077280250980e-001
-4.972862717011226e-001 -8.279582881956761e-001
-9.054851727886617e-001 -5.082774988108240e-001
-7.166998959266326e-001 -5.388478467243621e-001
-6.196659276887576e-001 -6.210895199934648e-001
-8.594771525087522e-001 -5.112123273822506e-001
-4.835407904478533e-001 -9.275229508108792e-001
-6.925168350180226e-001 -5.524409065858642e-001
-8.126843053642164e-001 -5.119756822958842e-001
-7.408816817259104e-001 -5.252684390366580e-001
-4.830411350297419e-001 -9.758055954564413e-001
-5.463229291433332e-001 -7.173889583835629e-001
-5.217704370812291e-001 -7.587088840724344e-001
-4.714436312180731e-001 -8.995819231856702e-001
-6.683417360576414e-001 -5.660510267121618e-001
-5.708969945649113e-001 -6.760457572833086e-001
-4.735505716550201e-001 -8.695845214258412e-001
-4.973513476657426e-001 -8.001019150922195e-001
-9.762341159554424e-001 -4.897865927899697e-001
-7.650322123792526e-001 -5.116802611285239e-001
-5.954615170634466e-001 -6.346819752791870e-001
-9.283054693151415e-001 -4.916386811335698e-001
-6.441697365310762e-001 -5.796691053273849e-001
-8.822317160486750e-001 -4.963320224040443e-001
-4.733584025248756e-001 -8.418594391996996e-001
-8.362970668512402e-001 -4.979996592588474e-001
-4.692248855146032e-001 -9.513676631630257e-001
-4.690555555555557e-001 -1.000000000000000e+000
-6.199908169910678e-001 -5.932838698896407e-001
-7.890921331598687e-001 -4.980435165461231e-001
-5.221089301725664e-001 -7.309415967345370e-001
-5.466714739861768e-001 -6.896159106320806e-001
-4.975895390819778e-001 -7.722747363942077e-001
-6.928563879126916e-001 -5.246643783175464e-001
-7.170497488063691e-001 -5.110927360480467e-001
-5.712428217277700e-001 -6.482643502857210e-001
-1.000000000000000e+000 -4.753888888888889e-001
-4.732696683574583e-001 -8.138750076617577e-001
-9.521855003275038e-001 -4.758723944906961e-001
-4.555376334734902e-001 -9.262578675556420e-001
-6.686706979872247e-001 -5.382551210957471e-001
-9.041822791650193e-001 -4.804712967434280e-001
-5.957967595584297e-001 -6.068871631933522e-001
-7.412366516819174e-001 -4.975307792898839e-001
-8.594110110706598e-001 -4.838180415241431e-001
-4.522122523995621e-001 -8.802349469309292e-001
-8.129651617024966e-001 -4.843123754496251e-001
-4.551511169581675e-001 -9.756463169147915e-001
-6.444935205144802e-001 -5.518632445120065e-001
-4.497971570497368e-001 -8.561185339943290e-001
-5.224510227041766e-001 -7.031770474740298e-001
-4.979040642682677e-001 -7.444872647719261e-001
-5.470170290703446e-001 -6.618407195488739e-001
-7.653834027918850e-001 -4.839572060371194e-001
-4.734209153154349e-001 -7.859115976130360e-001
-6.203166715961813e-001 -5.654780823886560e-001
-4.408497217649365e-001 -9.015113052048891e-001
-9.764383071494347e-001 -4.617250283706373e-001
-5.715858062206448e-001 -6.204785858973355e-001
-9.262001249206963e-001 -4.596084306964189e-001
-4.492342177228805e-001 -8.279712756584018e-001
-8.816069048008867e-001 -4.696373592179813e-001
-4.412642372972968e-001 -9.510656310004436e-001
-6.932126912017497e-001 -4.969136589338218e-001
-8.365240196599073e-001 -4.704728092344004e-001
-5.961298020199376e-001 -5.790884502994998e-001
-6.690167639572153e-001 -5.104852831811025e-001
-4.411728395061729e-001 -1.000000000000000e+000
-7.894298519712454e-001 -4.703439576773811e-001
-7.174130397576427e-001 -4.833580210737510e-001
-4.982366266574663e-001 -7.167265606372024e-001
-5.227913236397852e-001 -6.754110896615123e-001
-4.737013190128823e-001 -7.580523565663878e-001
-5.473623861861342e-001 -6.340619630124952e-001
-6.448304048092773e-001 -5.240765768331265e-001
-4.492482498223146e-001 -7.997194958079938e-001
-1.000000000000000e+000 -4.477160493827159e-001
-4.258199607305154e-001 -8.745236297867699e-001
-9.534606598416987e-001 -4.475690645653495e-001
-4.272566580219810e-001 -9.264144822309986e-001
-7.416007168803865e-001 -4.698061451206878e-001
-5.719270403529958e-001 -5.926888056299484e-001
-9.008771099680070e-001 -4.568445409062157e-001
-6.206494122718523e-001 -5.376824928302119e-001
-8.596686609655508e-001 -4.566215017763680e-001
-4.272613384691595e-001 -9.755585909864908e-001
-4.250364648939373e-001 -8.428736091218166e-001
-8.132886117767705e-001 -4.566684706031279e-001
-4.985694408774754e-001 -6.889724320508703e-001
-5.964648813896851e-001 -5.512928792651638e-001
-7.657426629268723e-001 -4.562411920796527e-001
-4.740232498596506e-001 -7.302719613003844e-001
-5.231333522903323e-001 -6.476399318055132e-001
-4.494874019336827e-001 -7.716905031504417e-001
-6.693777439406183e-001 -4.827393073432493e-001
-5.477087198798457e-001 -6.062793251387416e-001
-6.935805491998979e-001 -4.691820299616471e-001
-9.768350476040961e-001 -4.340009784028978e-001
-4.132204735274058e-001 -9.021123410439335e-001
-4.249967673330837e-001 -8.138211361092728e-001
-9.348616572078307e-001 -4.335732252544932e-001
-6.451819390467525e-001 -4.963134229507298e-001
-4.133646281139067e-001 -9.510144081316230e-001
-9.093913226114917e-001 -4.309905717957040e-001
-8.826782499854148e-001 -4.431673975313646e-001
-5.722682987813169e-001 -5.648981663346977e-001
-8.368777848580397e-001 -4.429390042880201e-001
-7.177829309164454e-001 -4.556342793845679e-001
-4.132962962962964e-001 -1.000000000000000e+000
-7.897829354409748e-001 -4.426452388546455e-001
-6.209934722938941e-001 -5.099051227755462e-001
-4.743497082849955e-001 -7.025248245360672e-001
-4.989043293088316e-001 -6.612123606870870e-001
-4.001259889639660e-001 -8.572340694210839e-001
-4.498004050247800e-001 -7.438398311983095e-001
-5.234798325461563e-001 -6.198633688508931e-001
-4.252316634445508e-001 -7.854670657958422e-001
-7.419685141240775e-001 -4.420854649354459e-001
-5.968062705127559e-001 -5.235077883752863e-001
-1.000000000000000e+000 -4.200370370370370e-001
-9.543701581495129e-001 -4.205615777517959e-001
-3.998665857554709e-001 -8.819327624288367e-001
-5.480563104032767e-001 -5.784944998651241e-001
-3.995621087752273e-001 -9.264389354959617e-001
-4.004863617374720e-001 -8.280705627441020e-001
-3.994053036623752e-001 -9.755165240976478e-001
-8.602356688073455e-001 -4.292020447768747e-001
-6.697474047542551e-001 -4.550089736165358e-001
-8.136445783220080e-001 -4.290050460838767e-001
-5.726122457237312e-001 -5.371119767239282e-001
-6.455453559849328e-001 -4.685704388428532e-001
-4.746769504648791e-001 -6.747777336458479e-001
-7.661062976470093e-001 -4.285237994347021e-001
-4.501247792271761e-001 -7.160775792235666e-001
-6.939528229078423e-001 -4.414588701462853e-001
-9.309574694246784e-001 -4.090374030765103e-001
-4.992462469529471e-001 -6.334431791303495e-001
-4.255517971365508e-001 -7.574685153811176e-001
-8.837444378962872e-001 -4.152969904990408e-001
-5.238308901332734e-001 -5.920832740657874e-001
-6.213491286911648e-001 -4.821472993420065e-001
-4.008734497112804e-001 -7.993775412350890e-001
-9.768927227591595e-001 -4.063975794787047e-001
-3.861961466295346e-001 -9.019254842018687e-001
-7.181539536329812e-001 -4.279127126127514e-001
-3.855711704084329e-001 -9.509236834826199e-001
-5.484057299793771e-001 -5.507107407468712e-001
-5.971563998904000e-001 -4.957378621647839e-001
-8.372546547676221e-001 -4.153098247737610e-001
-3.854259259259261e-001 -1.000000000000000e+000
-3.740783564571650e-001 -8.740753916757311e-001
-7.901432664493125e-001 -4.149362484396069e-001
-3.755661742663672e-001 -8.423813746306640e-001
-9.061870002245543e-001 -3.991154198049052e-001
-4.504483088826634e-001 -6.883377810996146e-001
-4.750119518103146e-001 -6.470186665583237e-001
-4.258846908818908e-001 -7.296508659442095e-001
-5.729613843058335e-001 -5.093352704448783e-001
-7.423363392491388e-001 -4.143626159022653e-001
-4.995968135502400e-001 -6.056674148384735e-001
-4.012567690449743e-001 -7.711791258465889e-001
-9.534496782692190e-001 -3.927719207664342e-001
-6.459146525332612e-001 -4.408393045519348e-001
-1.000000000000000e+000 -3.923518518518518e-001
-5.241855857002178e-001 -5.643023513115129e-001
-6.701194085869676e-001 -4.272846919148187e-001
-8.605402309863283e-001 -4.015186372063471e-001
-3.763590005815292e-001 -8.133086366892125e-001
-3.718828732762695e-001 -9.261279602750244e-001
-3.715582286371299e-001 -9.754703412038265e-001
-6.217130585610022e-001 -4.544049662904269e-001
-5.487579751483964e-001 -5.229319312381618e-001
-8.140032762494545e-001 -4.013083617931203e-001
-6.943242270982144e-001 -4.137360778365269e-001
-7.664711561243389e-001 -4.008003148438444e-001
-4.507775019392942e-001 -6.605895981600384e-001
-4.262119971321467e-001 -7.019015086202023e-001
-5.975147592741449e-001 -4.679831584800913e-001
-9.276271112223122e-001 -3.771517268806001e-001
-4.753588623532468e-001 -6.192485163579131e-001
-8.829824453925857e-001 -3.875218060752816e-001
-3.586035940183046e-001 -9.009241964318392e-001
-4.016194436087301e-001 -7.432674388321233e-001
-4.999546494889391e-001 -5.778887153909013e-001
-3.768971421153524e-001 -7.849429121095223e-001
-7.185231294104266e-001 -4.001878972921801e-001
-3.505018413120249e-001 -8.551398678758861e-001
-9.769134828077632e-001 -3.786899967123596e-001
-5.733165264006789e-001 -4.815706373542485e-001
-5.245431407267939e-001 -5.365236322395583e-001
-3.576944310501755e-001 -9.507833997354340e-001
-8.375945759669755e-001 -3.876277604562755e-001
-3.575617283950618e-001 -1.000000000000000e+000
-3.517486051224777e-001 -8.269358391825374e-001
-7.905056273638977e-001 -3.872151760497766e-001
-6.462844856839404e-001 -4.131121063160719e-001
-5.491137987241113e-001 -4.951613406863865e-001
-4.265399969749136e-001 -6.741585808019455e-001
-4.511196712184221e-001 -6.328266253200809e-001
-3.475935870242183e-001 -8.793260995200898e-001
-9.022888256632259e-001 -3.745815244105281e-001
-7.427032876700209e-001 -3.866350278602681e-001
-4.019612590970201e-001 -7.154831112177483e-001
-6.220804843429326e-001 -4.266713250555148e-001
-4.757170757408107e-001 -5.914722056276153e-001
-6.704893940249982e-001 -3.995594794095318e-001
-9.542522898322012e-001 -3.648500747450896e-001
-3.773228993323143e-001 -7.569311804838014e-001
-8.608214137923142e-001 -3.739220244514230e-001
-5.003173599978158e-001 -5.501103933256219e-001
-5.978781804136163e-001 -4.402399300913571e-001
-3.436431149036666e-001 -9.256495645447496e-001
-1.000000000000000e+000 -3.646604938271605e-001
-3.524846350550621e-001 -7.986588671266134e-001
-6.946928774630864e-001 -3.860094261972187e-001
-3.436939733699029e-001 -9.754623260642296e-001
-5.249029142092491e-001 -5.087501153323140e-001
-8.143625651057613e-001 -3.735934306659303e-001
-5.736765602105532e-001 -4.538175070985870e-001
-7.668364052593777e-001 -3.730710239113564e-001
-4.268792861416213e-001 -6.464021200149354e-001
-4.022954355956815e-001 -6.877329747812725e-001
-4.514764014875639e-001 -6.050536359345636e-001
-9.106324891073792e-001 -3.485531346614882e-001
-3.272915817648840e-001 -8.402930169168957e-001
-3.280888014833235e-001 -8.984746602595852e-001
-8.839055861003112e-001 -3.605454479508544e-001
-5.494729052423687e-001 -4.674003207408738e-001
-9.358368262563717e-001 -3.512137742431542e-001
-3.776938034910140e-001 -7.290949355954465e-001
-3.264948659038043e-001 -8.681657140187528e-001
-7.188903217931091e-001 -3.724582983310122e-001
-4.760834389241110e-001 -5.636942206081729e-001
-3.530008881265964e-001 -7.706140576656878e-001
-9.771366602632866e-001 -3.511769998797948e-001
-5.006826485746169e-001 -5.223352767330877e-001
-6.224473878116594e-001 -3.989401802281249e-001
-8.379674213013130e-001 -3.599305149055578e-001
-6.466520214837655e-001 -3.853835033799703e-001
-3.297722333960091e-001 -9.508751986229158e-001
-3.280819167781064e-001 -8.122505946396109e-001
-3.297037037037038e-001 -1.000000000000000e+000
-7.908693014304734e-001 -3.594866225425311e-001
-5.252641623022399e-001 -4.809839292475860e-001
-5.982431382228475e-001 -4.125029621933480e-001
-4.026358241204664e-001 -6.599781011551223e-001
-4.272344205557529e-001 -6.186328274302056e-001
-6.708563634695945e-001 -3.718303201291060e-001
-7.430698544578509e-001 -3.589027957938888e-001
-3.780416514628885e-001 -7.013240776592523e-001
-4.518448723596904e-001 -5.772763437114156e-001
-5.740391076312245e-001 -4.260727345676838e-001
-8.613605628490909e-001 -3.462489098405325e-001
-9.549192563804487e-001 -3.382328736156863e-001
-3.534135443544810e-001 -7.427392018990077e-001
-3.156762172504756e-001 -9.265800742201953e-001
-4.764543265535279e-001 -5.359177450522642e-001
-6.950591778937697e-001 -3.582779449432922e-001
-5.498340062393190e-001 -4.396479682535312e-001
-1.000000000000000e+000 -3.369629629629629e-001
-3.286734660725918e-001 -7.842723144847504e-001
-8.849686566556402e-001 -3.324126017207497e-001
-5.010485940794193e-001 -4.945656431942759e-001
-9.320057778588647e-001 -3.274308559307006e-001
-3.158428828778849e-001 -9.755155373003731e-001
-8.147240772709911e-001 -3.458712395711774e-001
-3.029164633001014e-001 -8.537784267852007e-001
-3.022644869869034e-001 -8.821496793819222e-001