VARIABLES = X, Y
ZONE I=67, J=106, F=FEPOINT
-6.936281600704960e-001 -6.998382224611909e-001
-1.000000000000000e+000 -1.000000000000000e+000
-6.000000000000000e-001 -1.000000000000000e+000
-1.000000000000000e+000 -6.000000000000001e-001
-3.679245879315849e-001 -7.295765712601695e-001
-7.282659398689374e-001 -3.858211318809558e-001
-4.677059488287220e-001 -4.842326847091798e-001
-2.000000000000000e-001 -1.000000000000000e+000
-1.000000000000000e+000 -2.000000000000002e-001
-2.307485855944424e-001 -5.071140302119320e-001
-1.832974387670647e-002 -6.876630143541657e-001
-4.931042286291472e-001 -2.449963655457983e-001
-7.189383868522615e-001 -8.598820010306792e-002
-2.979657350220097e-001 -3.393499821825878e-001
2.000000000000002e-001 -1.000000000000000e+000
-5.721366427304436e-002 -4.199831788399316e-001
-1.000000000000000e+000 2.000000000000000e-001
-1.809981580727617e-001 -3.843268351411174e-001
-4.731875281313245e-001 -2.995619909692072e-002
3.486114687599352e-001 -7.099903888668133e-001
-2.802431758961360e-001 -1.442566608285176e-001
1.755668846371878e-001 -4.491385143911992e-001
-6.243959139245326e-001 1.458939058406195e-001
-1.429031546911762e-001 -2.726636036226325e-001
6.000000000000001e-001 -1.000000000000000e+000
4.843185402894185e-002 -2.216409563838167e-001
-6.772355772281724e-001 3.991681548197397e-001
-3.027508184555385e-001 3.206832772726032e-002
-4.293756509195988e-001 1.200750702876124e-001
4.481823452068385e-001 -4.387693636677439e-001
-1.000000000000000e+000 6.000000000000000e-001
6.846333495971088e-001 -6.856566429739118e-001
-9.715791572563691e-002 -1.278441250446113e-001
2.803522627564605e-001 -2.188209737532391e-001
-1.658542889369435e-001 -2.581329421116437e-002
-4.549532537384910e-001 2.745565550976745e-001
1.000000000000000e+000 -1.000000000000000e+000
-3.003270805656212e-001 1.809866058726977e-001
-5.798248491386975e-001 6.981506754384502e-001
1.496160174505898e-002 -6.455296851056989e-002
1.599999999999999e-001 0.000000000000000e+000
7.102377313483440e-001 -3.658439866169040e-001
-1.783301443311364e-001 9.488186947848537e-002
-4.087096591551473e-001 4.780503897348940e-001
4.879238717709835e-001 -2.045585907470609e-001
-6.481980063514603e-002 -3.775462198771030e-002
1.000000000000000e+000 -6.000000000000000e-001
-7.333333333333334e-001 1.000000000000000e+000
-2.982583785664007e-001 3.264715139710660e-001
3.600000000000000e-001 0.000000000000000e+000
-8.074444717022371e-002 3.043213013715367e-002
-1.000000000000000e+000 1.000000000000000e+000
3.999999999999992e-002 0.000000000000000e+000
-1.480900216517848e-001 2.417552971133883e-001
-2.619743850295671e-001 7.124927212758226e-001
0.000000000000000e+000 0.000000000000000e+000
-4.000000000000000e-001 1.000000000000000e+000
6.400000000000000e-001 0.000000000000000e+000
1.000000000000000e+000 -2.666666666666666e-001
-1.855148952262492e-001 4.595380228516473e-001
-8.070044705132833e-002 1.131053149729552e-001
0.000000000000000e+000 4.000000000000001e-002
0.000000000000000e+000 1.000000000000000e+000
0.000000000000000e+000 3.600000000000000e-001
0.000000000000000e+000 1.600000000000000e-001
0.000000000000000e+000 6.400000000000000e-001
1.000000000000000e+000 0.000000000000000e+000
   1    2    3     3 
   1    4    2     2 
   1    3    5     5 
   1    6    4     4 
   1    5    7     7 
   1    7    6     6 
   5    3    8     8 
   6    9    4     4 
   7    5   10    10 
   8   11    5     5 
   7   12    6     6 
  10    5   11    11 
   6   13    9     9 
   7   10   14    14 
  13    6   12    12 
   7   14   12    12 
   8   15   11    11 
  10   11   16    16 
  13   17    9     9 
  10   18   14    14 
  13   12   19    19 
  10   16   18    18 
  15   20   11    11 
  12   14   21    21 
  22   16   11    11 
  12   21   19    19 
  22   11   20    20 
  17   13   23    23 
  23   13   19    19 
  24   14   18    18 
  24   18   16    16 
  14   24   21    21 
  15   25   20    20 
  22   26   16    16 
  16   26   24    24 
  17   23   27    27 
  28   19   21    21 
  23   19   29    29 
  22   20   30    30 
  31   17   27    27 
  28   29   19    19 
  20   25   32    32 
  33   21   24    24 
  22   34   26    26 
  30   20   32    32 
  33   24   26    26 
  21   35   28    28 
  34   22   30    30 
  23   36   27    27 
  23   29   36    36 
  35   21   33    33 
  32   25   37    37 
  28   38   29    29 
  31   27   39    39 
  26   40   33    33 
  41   26   34    34 
  36   29   38    38 
  30   32   42    42 
  28   35   43    43 
  41   40   26    26 
  44   27   36    36 
  43   38   28    28 
  30   45   34    34 
  44   39   27    27 
  35   33   46    46 
  32   37   47    47 
  30   42   45    45 
  39   48   31    31 
  33   40   46    46 
  42   32   47    47 
  38   49   36    36 
  34   50   41    41 
  45   50   34    34 
  35   51   43    43 
  49   44   36    36 
  31   48   52    52 
  46   51   35    35 
  40   41   53    53 
  43   54   38    38 
  44   55   39    39 
  38   54   49    49 
  46   40   56    56 
  57   48   39    39 
  42   58   45    45 
  42   47   59    59 
  40   53   56    56 
  55   57   39    39 
  45   58   50    50 
  46   56   51    51 
  49   60   44    44 
  43   51   61    61 
  43   61   54    54 
  42   59   58    58 
  44   60   55    55 
  49   54   60    60 
  51   56   62    62 
  62   61   51    51 
  55   63   57    57 
  64   60   54    54 
  61   65   54    54 
  55   60   66    66 
  65   64   54    54 
  58   59   67    67 
  55   66   63    63 
  62   65   61    61 
  64   66   60    60 
