VARIABLES = X, Y
ZONE I=133, J=224, F=FEPOINT
-8.159266998796942e-001 -7.884979666474297e-001
-1.000000000000000e+000 -1.000000000000000e+000
-7.500000000000000e-001 -1.000000000000000e+000
-1.000000000000000e+000 -7.500000000000000e-001
-5.992255975958308e-001 -7.870576792904768e-001
-8.581694546645677e-001 -6.032287179268893e-001
-6.879385738067375e-001 -5.925027950594267e-001
-5.000000000000000e-001 -1.000000000000000e+000
-1.000000000000000e+000 -5.000000000000000e-001
-4.887694089456305e-001 -5.821115827975513e-001
-3.522975720746496e-001 -7.622658527491385e-001
-7.869336160819111e-001 -3.870536169305830e-001
-5.783836564689853e-001 -4.115915643883254e-001
-2.500000000000000e-001 -1.000000000000000e+000
-1.000000000000000e+000 -2.500000000000000e-001
-3.090841628028446e-001 -5.414208394166827e-001
-4.052241304596271e-001 -4.039879192746761e-001
-1.209332136058942e-001 -7.924497578652655e-001
-6.266055900094367e-001 -2.522198354923300e-001
-7.582374410250783e-001 -1.044401121323058e-001
-1.973054753981330e-001 -6.373308227870202e-001
-4.755341214940958e-001 -2.588173668371503e-001
0.000000000000000e+000 -1.000000000000000e+000
-2.525898174930562e-001 -3.796283999847547e-001
-1.000000000000000e+000 0.000000000000000e+000
-1.577589351311200e-001 -4.901353987039815e-001
-3.276407969844209e-001 -2.586687934249249e-001
-5.359501244810539e-001 -1.050272048285679e-001
-4.568205937736430e-002 -6.049356006812184e-001
1.203349678372068e-001 -7.534206314584121e-001
-7.944518756450024e-001 1.585959194141748e-001
-5.672590868099695e-001 9.950565053708674e-002
-3.823127314544955e-001 -1.300989867341625e-001
-1.190453140235199e-001 -3.449277558519352e-001
-1.975119911696612e-001 -2.463871310578057e-001
2.500000000000000e-001 -1.000000000000000e+000
-2.235338168274577e-002 -4.390948523233534e-001
-1.000000000000000e+000 2.500000000000000e-001
1.047155594528018e-001 -5.224819727464871e-001
-2.558233458400689e-001 -1.418227510759653e-001
-4.113196540912147e-001 8.055624152386920e-003
-6.312033560871653e-001 3.103406841534879e-001
3.740031147880784e-001 -7.852062909304941e-001
-8.139392176687174e-001 3.929325434719252e-001
2.809983390484159e-001 -5.731110087811034e-001
-8.474163743863487e-002 -2.209084495373267e-001
-2.008346440353220e-004 -2.996064421342136e-001
-2.939244386224431e-001 -3.313050827994776e-002
-3.858678417859326e-001 1.450935939839147e-001
-4.629510651922684e-001 2.762585232565231e-001
-1.482584475440902e-001 -1.393477559310113e-001
8.408270439199583e-002 -3.780846966903247e-001
5.000000000000000e-001 -1.000000000000000e+000
-1.000000000000000e+000 5.000000000000000e-001
2.115836896344726e-001 -3.916679337272034e-001
-6.425414267091677e-001 5.126019385459241e-001
-1.914525914184845e-001 -5.098662636222891e-002
4.888950468069126e-001 -5.927881918383101e-001
-3.120057938321521e-001 6.369189379377008e-002
-5.133789631637764e-001 4.169836773168883e-001
1.326456648021889e-002 -1.773168596110428e-001
6.045551474545187e-001 -7.955590586731328e-001
-5.938218041604586e-002 -1.224105398786983e-001
-8.189461865593725e-001 6.235813357374439e-001
-3.146693346220047e-001 2.678512222487312e-001
1.267254643905229e-001 -2.417850058686012e-001
3.873836067258567e-001 -3.987845582371399e-001
-2.201349219703100e-001 4.442269295093237e-002
-1.060296587109451e-001 -5.875423410321819e-002
-2.584118731984101e-001 1.474264713858919e-001
-3.755400067166222e-001 4.108132183292399e-001
7.500000000000000e-001 -1.000000000000000e+000
-4.617923732416834e-001 5.699461954162378e-001
-1.000000000000000e+000 7.500000000000000e-001
-6.216880096485786e-001 7.577939433631721e-001
6.961178610598221e-001 -6.048192464963408e-001
2.860760773986291e-001 -2.411332285368831e-001
7.117765188050167e-003 -8.716369563594432e-002
-1.329128846834436e-001 1.678223255859370e-002
5.915333280767546e-001 -4.049821856405877e-001
8.804381458399435e-002 -9.459145051785842e-002
-4.175174461342716e-002 -5.354518364293300e-002
8.191329352198627e-001 -7.939346433011241e-001
-1.866196222113432e-001 2.403150440203050e-001
-2.296849368465625e-001 3.800926840364391e-001
-8.379337577936814e-001 8.264212715762390e-001
-1.427842457766543e-001 1.162083465695741e-001
2.037000053145936e-001 -1.142149393586256e-001
4.661759191599421e-001 -1.948120786667481e-001
-2.801129358894568e-001 5.472430633035131e-001
-6.892747344071584e-002 -6.276583030069637e-003
-3.439974716322913e-001 7.693971683845788e-001
1.000000000000000e+000 -1.000000000000000e+000
8.090488131536772e-001 -4.308625616711734e-001
8.647417622292803e-001 -6.154903896698392e-001
3.935090129926479e-002 -4.293247940831697e-002
-1.000000000000000e+000 1.000000000000000e+000
5.883197552826862e-004 -3.304022303501352e-002
-7.500000000000000e-001 1.000000000000000e+000
3.211648656621692e-001 -1.096752930907248e-001
-7.658940014373909e-002 5.202283092453493e-002
-5.000000000000000e-001 1.000000000000000e+000
1.500000000000000e-001 0.000000000000000e+000
-1.030250052353772e-001 3.258860668163521e-001
7.027010569665494e-001 -2.130350196190368e-001
-8.034820255879886e-002 1.989112655217024e-001
-2.823055045474051e-002 -1.473164118280404e-002
-1.263712735726486e-001 4.828217021563763e-001
1.000000000000000e+000 -7.500000000000000e-001
7.500000000000007e-002 0.000000000000000e+000
-1.493973001777385e-001 6.656527627322207e-001
2.500000000000000e-001 0.000000000000000e+000
-5.467116126982288e-002 1.083268580996605e-001
4.000000000000000e-001 0.000000000000000e+000
1.000000000000000e+000 -5.000000000000000e-001
-3.382863011402762e-002 1.879896338194223e-002
-2.500000000000000e-001 1.000000000000000e+000
5.750000000000000e-001 0.000000000000000e+000
2.500000000000002e-002 0.000000000000000e+000
1.000000000000000e+000 -2.500000000000000e-001
-1.484818816302809e-001 8.422010100699149e-001
0.000000000000000e+000 0.000000000000000e+000
0.000000000000000e+000 2.500000000000000e-001
0.000000000000000e+000 4.000000000000000e-001
-3.252134774137469e-002 5.598922113933904e-002
0.000000000000000e+000 1.500000000000000e-001
0.000000000000000e+000 5.750000000000000e-001
7.750000000000000e-001 0.000000000000000e+000
0.000000000000000e+000 7.749999999999999e-001
0.000000000000000e+000 2.499999999999999e-002
0.000000000000000e+000 1.000000000000000e+000
0.000000000000000e+000 7.499999999999998e-002
1.000000000000000e+000 0.000000000000000e+000
   1    2    3     3 
   1    4    2     2 
   1    3    5     5 
   6    4    1     1 
   7    1    5     5 
   7    6    1     1 
   3    8    5     5 
   4    6    9     9 
   7    5   10    10 
   5    8   11    11 
   7   12    6     6 
  10    5   11    11 
  12    9    6     6 
  13    7   10    10 
  13   12    7     7 
   8   14   11    11 
  12   15    9     9 
  16   10   11    11 
  13   10   17    17 
  14   18   11    11 
  17   10   16    16 
  13   19   12    12 
  12   20   15    15 
  11   21   16    16 
  11   18   21    21 
  19   20   12    12 
  13   17   22    22 
  13   22   19    19 
  14   23   18    18 
  17   16   24    24 
  20   25   15    15 
  21   26   16    16 
  27   22   17    17 
  26   24   16    16 
  28   20   19    19 
  24   27   17    17 
  21   18   29    29 
  28   19   22    22 
  23   30   18    18 
  31   25   20    20 
  21   29   26    26 
  29   18   30    30 
  32   20   28    28 
  27   33   22    22 
  32   31   20    20 
  28   22   33    33 
  26   34   24    24 
  24   35   27    27 
  23   36   30    30 
  37   26   29    29 
  34   35   24    24 
  38   25   31    31 
  37   34   26    26 
  29   30   39    39 
  33   27   40    40 
  32   28   41    41 
  27   35   40    40 
  28   33   41    41 
  42   31   32    32 
  37   29   39    39 
  36   43   30    30 
  38   31   44    44 
  39   30   45    45 
  46   35   34    34 
  44   31   42    42 
  37   47   34    34 
  30   43   45    45 
  48   33   40    40 
  41   33   48    48 
  32   41   49    49 
  50   42   32    32 
  51   40   35    35 
  46   34   47    47 
  39   52   37    37 
  32   49   50    50 
  43   36   53    53 
  35   46   51    51 
  54   38   44    44 
  52   47   37    37 
  55   39   45    45 
  44   42   56    56 
  48   40   57    57 
  43   58   45    45 
  39   55   52    52 
  57   40   51    51 
  59   41   48    48 
  49   41   59    59 
  60   42   50    50 
  47   61   46    46 
  43   53   62    62 
  60   56   42    42 
  46   63   51    51 
  64   54   44    44 
  58   43   62    62 
  56   64   44    44 
  50   49   65    65 
  66   47   52    52 
  45   67   55    55 
  63   46   61    61 
  58   67   45    45 
  66   52   55    55 
  48   57   68    68 
  47   66   61    61 
  59   48   68    68 
  69   57   51    51 
  49   59   70    70 
  60   50   71    71 
  51   63   69    69 
  70   65   49    49 
  71   50   65    65 
  62   53   72    72 
  73   56   60    60 
  74   54   64    64 
  56   75   64    64 
  58   62   76    76 
  59   68   70    70 
  55   77   66    66 
  67   77   55    55 
  63   61   78    78 
  57   79   68    68 
  71   73   60    60 
  73   75   56    56 
  69   79   57    57 
  58   80   67    67 
  61   66   81    81 
  58   76   80    80 
  63   82   69    69 
  62   72   83    83 
  70   84   65    65 
  61   81   78    78 
  76   62   83    83 
  85   71   65    65 
  78   82   63    63 
  64   86   74    74 
  75   86   64    64 
  87   70   68    68 
  88   66   77    77 
  89   77   67    67 
  79   87   68    68 
  71   90   73    73 
  85   65   84    84 
  88   81   66    66 
  80   89   67    67 
  69   91   79    79 
  73   92   75    75 
  87   84   70    70 
  69   82   91    91 
  85   90   71    71 
  83   72   93    93 
  94   80   76    76 
  76   83   95    95 
  90   92   73    73 
  96   78   81    81 
  86   97   74    74 
  78   98   82    82 
  75   99   86    86 
 100   88   77    77 
  76   95   94    94 
 100   77   89    89 
  79  101   87    87 
  92  102   75    75 
  91  101   79    79 
 103   81   88    88 
  96   98   78    78 
 104   85   84    84 
  80  105   89    89 
  75  102   99    99 
  87  106   84    84 
  94  105   80    80 
 107   91   82    82 
  86   99   97    97 
  85  108   90    90 
  83   93  109   109 
 110   96   81    81 
  95   83  109   109 
  82   98  107   107 
  90  111   92    92 
 103  110   81    81 
  84  106  104   104 
 104  108   85    85 
 100  112   88    88 
 101  113   87    87 
  88  112  103   103 
 100   89  114   114 
  95  115   94    94 
  87  113  106   106 
 116  101   91    91 
  90  108  111   111 
  92  117  102   102 
 105  118   89    89 
  96  119   98    98 
 116   91  107   107 
  94  120  105   105 
 109  115   95    95 
  89  118  114   114 
 121   92  111   111 
  96  110  119   119 
 100  114  112   112 
 122  107   98    98 
  94  115  120   120 
 121  117   92    92 
 106  123  104   104 
 124  108  104   104 
  98  119  122   122 
 101  125  113   113 
 101  116  125   125 
 126  106  113   113 
 122  116  107   107 
 127  111  108   108 
 105  128  118   118 
 123  124  104   104 
 105  120  128   128 
 126  123  106   106 
 124  127  108   108 
 121  111  129   129 
 127  129  111   111 
 116  122  130   130 
 121  131  117   117 
 125  132  113   113 
 130  125  116   116 
 132  126  113   113 
 128  120  133   133 
 121  129  131   131 
 130  132  125   125 
