VARIABLES = X, Y
ZONE I=346, J=622, F=FEPOINT
-1.000000000000000e+000 -8.642857142857141e-001
-1.000000000000000e+000 -1.000000000000000e+000
-8.500000000000000e-001 -1.000000000000000e+000
-8.683427730162130e-001 -8.018812150615199e-001
-1.000000000000000e+000 -7.275510204081630e-001
-7.349108916845202e-001 -8.570053551813976e-001
-8.728404612342661e-001 -6.502291433265117e-001
-7.010204081632654e-001 -1.000000000000000e+000
-7.517325357546948e-001 -7.119848165607433e-001
-1.000000000000000e+000 -5.897959183673467e-001
-6.009021439673071e-001 -8.757617171693538e-001
-6.364261158915200e-001 -7.522631175137723e-001
-7.391751173353256e-001 -5.625747284419645e-001
-8.773944059308248e-001 -5.072217075224369e-001
-5.530612244897959e-001 -1.000000000000000e+000
-6.576054267807694e-001 -6.476814199554830e-001
-5.146124166628686e-001 -7.648262627068680e-001
-1.000000000000000e+000 -4.510204081632652e-001
-4.640767090189667e-001 -8.806145440667231e-001
-7.668366017799232e-001 -4.186919790306085e-001
-5.571244491537962e-001 -6.564746461382056e-001
-6.026826451043115e-001 -5.552450430682689e-001
-8.856167399410239e-001 -3.705424433293299e-001
-6.449999162119667e-001 -4.467135956717627e-001
-4.061224489795918e-001 -1.000000000000000e+000
-3.854000750101501e-001 -7.644818287702689e-001
-4.418753757760995e-001 -6.600407601283229e-001
-1.000000000000000e+000 -3.112244897959182e-001
-7.825587462961968e-001 -2.947066206327053e-001
-4.883806768898734e-001 -5.597112481267442e-001
-3.229796459740495e-001 -8.789773253560939e-001
-6.720784894412853e-001 -3.298960473443659e-001
-5.289840639591489e-001 -4.591863133263569e-001
-8.872958229990836e-001 -2.398068131329255e-001
-3.259249292118627e-001 -6.546348499362524e-001
-2.602040816326531e-001 -1.000000000000000e+000
-5.615782933747596e-001 -3.552084960387514e-001
-2.410248390448994e-001 -7.487551519402241e-001
-3.786509262282307e-001 -5.616675184415788e-001
-6.932113589152501e-001 -2.166390435463315e-001
-1.000000000000000e+000 -1.704081632653061e-001
-7.912377788072240e-001 -1.920864333791150e-001
-4.213369448648603e-001 -4.675817961133779e-001
-1.796360078265259e-001 -8.804113888415022e-001
-5.849918950126041e-001 -2.475576892729340e-001
-4.567848332706460e-001 -3.725573157034250e-001
-2.319471795916113e-001 -6.357439761018349e-001
-2.753592572805144e-001 -5.587854157310767e-001
-8.647048481103560e-001 -9.947241527811021e-002
-1.153061224489796e-001 -1.000000000000000e+000
-3.193573267833911e-001 -4.716698758595765e-001
-4.842044768865812e-001 -2.768717680055692e-001
-9.835960675384146e-002 -7.696140256259048e-001
-7.289482276302772e-001 -1.095906055154759e-001
-1.404754181525204e-001 -6.584035566458883e-001
-6.007928965852766e-001 -1.261629281583407e-001
-3.579401377360621e-001 -3.835605801411310e-001
-1.000000000000000e+000 -2.857142857142847e-002
-3.845516424721652e-002 -8.853800108538009e-001
-1.756412447912270e-001 -5.593531507155075e-001
-5.004448764654631e-001 -1.817317214165343e-001
-3.897984382705396e-001 -2.957058330250519e-001
-2.205143794795179e-001 -4.718825153110680e-001
-7.661845614774361e-001 -2.419371712106726e-003
-8.795353552372056e-001 4.618740474175045e-002
-2.640551741668511e-001 -3.895259462877621e-001
-2.289839604787500e-002 -6.694113495729117e-001
2.857142857142847e-002 -1.000000000000000e+000
-6.582419792376936e-001 -2.149964622158420e-002
3.484750914136686e-002 -7.756453267469126e-001
-4.148507370156219e-001 -2.107816808067249e-001
-7.060556700436572e-002 -5.683705874207071e-001
-4.890267349694842e-001 -9.044956940867915e-002
-2.994025414148168e-001 -3.076264548958089e-001
-1.000000000000000e+000 1.153061224489796e-001
-1.138366381993933e-001 -4.645137257144973e-001
-5.525601989147250e-001 -1.713942768180709e-002
1.006540468458941e-001 -8.866800529323045e-001
-1.756022402019192e-001 -3.899185443895263e-001
-7.717655773677977e-001 1.091536090769021e-001
-4.314867316348806e-001 -1.404583085686149e-001
-3.291835340717387e-001 -2.259211648423105e-001
-6.943332444634212e-001 5.908682645494680e-002
1.006721081215532e-001 -6.694472044991461e-001
3.947277418505132e-002 -5.751810202502746e-001
-8.748261988779156e-001 1.820168981253899e-001
-2.139334189763472e-001 -3.156040487425032e-001
1.704081632653061e-001 -1.000000000000000e+000
-6.075642552870348e-001 6.536600988282526e-002
-7.942613609077326e-003 -4.840763674922088e-001
1.699131964069040e-001 -7.733281160860509e-001
-4.529874032566892e-001 -4.406638050502731e-003
-3.572914197260240e-001 -1.465242600463679e-001
-3.981608391068890e-001 -7.448495896237452e-002
-1.060979107208151e-001 -3.800853460373040e-001
-2.447484241796649e-001 -2.386089589646796e-001
-1.000000000000000e+000 2.602040816326531e-001
-6.686417676847825e-001 1.426932026490159e-001
2.398428714671116e-001 -8.856944066393737e-001
-7.479853876684229e-001 2.249664421321305e-001
-3.969548876333055e-002 -3.997433705489914e-001
-1.364119869701080e-001 -3.203796846671987e-001
-5.084368502477973e-001 7.248406791154288e-002
1.483669943252364e-001 -5.708842623217988e-001
-2.723203588018336e-001 -1.590362923715651e-001
9.216324766086888e-002 -4.888037634447220e-001
2.369268544316382e-001 -6.519837257079441e-001
-8.504893199598930e-001 3.348185231318831e-001
-1.657270776989243e-001 -2.503500489364719e-001
-3.600593884441341e-001 3.921540605574832e-003
3.112244897959182e-001 -1.000000000000000e+000
-3.007659462136382e-001 -7.059338312495558e-002
-5.647515151831167e-001 1.540967065521715e-001
3.080243138718298e-001 -7.703607071614886e-001
4.700461231950948e-002 -4.082393147519717e-001
-4.120736122011132e-001 7.776194317360598e-002
-6.510415632984579e-002 -3.274205192416286e-001
-6.273294428571193e-001 2.405954356430050e-001
-1.907064992889375e-001 -1.757052591117589e-001
-1.000000000000000e+000 4.061224489795918e-001
-6.968899583770831e-001 3.379401021406965e-001
3.792709061557902e-001 -8.837704786641000e-001
1.883956894498012e-001 -4.863632306096226e-001
-9.319214891736351e-002 -2.610967468849644e-001
2.347589647858913e-001 -5.528758111760981e-001
-4.631462181108710e-001 1.573689885810085e-001
8.846878271294616e-003 -3.351017685521538e-001
-2.140163573255018e-001 -9.893379875322568e-002
1.400700423935503e-001 -4.075126431617828e-001
3.761816377097171e-001 -6.602003423129467e-001
-2.763076025435316e-001 1.376661188782108e-002
-3.229526996680525e-001 8.048270083450999e-002
-8.798407606825785e-001 4.830571595093883e-001
-1.172061162018104e-001 -1.928957742296688e-001
-7.558198646413185e-001 4.477086509827763e-001
-5.161809805272803e-001 2.435874212493416e-001
3.212911593016044e-001 -5.663401839401844e-001
4.510204081632652e-001 -1.000000000000000e+000
4.456594612773368e-001 -7.671715014330548e-001
-5.727645546721131e-001 3.375454697331562e-001
-2.304374711681266e-001 -3.449177260361877e-002
-2.404094735837844e-002 -2.695580703144821e-001
9.038997373234443e-002 -3.340465338476261e-001
-3.679362748633911e-001 1.556835514949559e-001
-1.323561653579358e-001 -1.162928742261268e-001
2.792327868330878e-001 -4.881037102788041e-001
2.369240128226056e-001 -4.089103593819985e-001
-1.000000000000000e+000 5.530612244897959e-001
-6.303117149503394e-001 4.396535177401562e-001
-5.142907589683423e-002 -2.076198263712973e-001
5.192345591461299e-001 -8.794865920074507e-001
-4.130002001382762e-001 2.391279915915138e-001
-2.432530593585091e-001 8.119033775849054e-002
4.385054056746078e-001 -5.507984818682422e-001
-7.925844988739431e-001 5.453521884101267e-001
4.547659839951359e-002 -2.719962908893822e-001
5.042407347316441e-001 -6.546141946486875e-001
-1.599047872380008e-001 -3.895925474266104e-002
1.867539090570805e-001 -3.175851508248097e-001
-2.034792346812893e-001 2.136356756292493e-002
-2.815318327493317e-001 1.501816378024729e-001
-4.601626851226745e-001 3.307764170459591e-001
-7.109667949278918e-002 -1.478547880710776e-001
-8.816678541905016e-001 6.104057636959799e-001
3.602355255744986e-001 -4.936370980427129e-001
-6.877332792565637e-001 5.437429828197563e-001
5.897959183673467e-001 -1.000000000000000e+000
-5.099856548788438e-001 4.304544952770719e-001
5.846413008722328e-001 -7.549057236229945e-001
1.131813082212239e-002 -2.149506294583518e-001
3.325199192425755e-001 -4.194723600918774e-001
-3.188044283701281e-001 2.287125344696113e-001
1.151907382682314e-001 -2.630360401557224e-001
-9.810772779949210e-002 -6.074545484830905e-002
2.938374447483755e-001 -3.329461953233004e-001
-7.735949094001542e-002 -1.005146366854002e-001
5.476311353336281e-001 -5.644205963516454e-001
-1.000000000000000e+000 7.010204081632654e-001
-1.479794618658379e-002 -1.604020111967040e-001
-1.737402650446985e-001 7.948154369884684e-002
-2.051218616640260e-001 1.416390291185507e-001
-3.560996887208271e-001 3.176585593546817e-001
-5.626080865431188e-001 5.384820772381625e-001
6.635094831402225e-001 -8.713297828907368e-001
-1.403488128671146e-001 2.639270169145103e-002
-7.597857383795298e-001 6.408649544505289e-001
4.265140836181933e-001 -4.430409761759420e-001
6.280649635745318e-001 -6.308157114823034e-001
7.176594250949428e-002 -2.150528790168715e-001
-3.975532591462614e-001 4.147010903969809e-001
5.275483932521322e-001 -4.736324114555628e-001
1.750184334730312e-001 -2.295644580193374e-001
-1.033837760211238e-001 -1.146560434767911e-002
-2.350959986638993e-001 2.134972335434590e-001
2.554797896371379e-001 -2.450768930299682e-001
-3.428621078307038e-002 -1.104377085973948e-001
-8.589628330106324e-001 7.384995588246724e-001
3.950448188949646e-001 -3.491961393958381e-001
4.102458433511040e-002 -1.653199567721538e-001
-6.283732920727459e-001 6.488715529532746e-001
-5.188050369049777e-002 -6.810938208611909e-002
7.275510204081630e-001 -1.000000000000000e+000
-4.409376228925214e-001 5.196770939711334e-001
7.435530302903552e-001 -7.266178663979125e-001
-2.634374984594937e-001 2.960931635837619e-001
-1.389872551209737e-001 1.304087078132613e-001
1.219971461137215e-001 -2.085981967486314e-001
-1.148072339752747e-001 7.538266093245162e-002
6.343246842546298e-001 -5.129596429258624e-001
-6.540381642923633e-002 -3.038514389856842e-002
3.537300775463414e-001 -2.558266929977804e-001
-2.881158259007447e-001 3.958496349205576e-001
1.533478388352828e-002 -1.167492233574177e-001
-1.000000000000000e+000 8.500000000000000e-001
-1.620058204537776e-001 1.952608284373281e-001
-8.975294044584470e-002 3.140101251910175e-002
4.996119126086644e-001 -3.713451283245595e-001
-7.112570177836072e-001 7.573486918138489e-001
-4.817996688595006e-001 6.466940236050641e-001
8.145000702068016e-001 -8.672966168681880e-001
2.179343390349888e-001 -1.726597636759557e-001
9.577381288446335e-002 -1.656397641043270e-001
7.483992174079340e-001 -5.722872416680546e-001
-3.343209754581948e-001 4.923105854319921e-001
-6.599626777478692e-003 -6.969158348730477e-002
1.521491801653821e-001 -1.683513816234377e-001
-1.837139953621851e-001 2.695718788678490e-001
6.118024037634496e-001 -3.998411392200645e-001
-6.903660771551265e-002 2.060390086575181e-003
3.038319563048797e-001 -1.597924222983409e-001
4.592739334809244e-001 -2.717067245784046e-001
-8.018019178864920e-001 8.709254384001409e-001
-3.059731014793817e-002 -3.783511879978643e-002
6.664697629833427e-002 -1.188945646322117e-001
-8.297349440991693e-002 1.161092251535812e-001
-2.028313889218736e-001 3.513413311267974e-001
-5.692705097370460e-001 7.647482634718644e-001
-9.879894232628338e-002 1.744442176837752e-001
8.642857142857141e-001 -1.000000000000000e+000
-3.629654819751544e-001 5.935156324964049e-001
-6.621680002753029e-002 6.760110325990361e-002
8.868647946834802e-001 -7.560785699696255e-001
8.749890595571036e-001 -6.343534993071588e-001
7.358353016568403e-001 -4.377590937498745e-001
-2.545552117108765e-001 4.734014277509330e-001
3.962815066499041e-002 -7.590924399496596e-002
-4.099743966871077e-002 -7.520734965337411e-003
4.115514542144099e-001 -1.748439126104188e-001
-1.139094869198718e-001 2.424653205622440e-001
-4.731178006968421e-002 2.703101241022599e-002
5.712638608514293e-001 -2.907858402821605e-001
-8.642857142857141e-001 1.000000000000000e+000
1.807497123391025e-001 -1.152673231322888e-001
1.208539003066844e-001 -1.164913391427505e-001
-2.124476212066009e-001 4.244486308394769e-001
-6.504471877299645e-001 8.794314577094049e-001
2.391733828585762e-001 -1.157615250356758e-001
-4.360621873127000e-001 7.719493282095363e-001
-4.911455529514723e-003 -3.680261436799320e-002
1.000000000000000e+000 -8.500000000000000e-001
-3.751006797962481e-001 6.875919886570496e-001
-1.284858344327139e-001 3.193123627937325e-001
-2.652747933456828e-001 5.549937250607364e-001
-1.000000000000000e+000 1.000000000000000e+000
8.687875267209452e-001 -4.920474637125849e-001
1.975342626370821e-002 -4.253946245937969e-002
6.957880344860338e-001 -3.132118251668132e-001
-4.496058675280933e-002 1.502125798157575e-001
-3.678706184699777e-002 9.813284291806068e-002
3.654854920690833e-001 -8.261204573316633e-002
5.197113164885419e-001 -1.877103131940558e-001
8.695217349021556e-002 -7.273361548035130e-002
-1.480455603437736e-002 -1.537936206606944e-002
-7.261904761904761e-001 1.000000000000000e+000
1.000000000000000e+000 -7.023809523809523e-001
-5.275593916335977e-002 2.123775229098564e-001
2.811865864205354e-001 -6.982777742934954e-002
-2.801781415189496e-002 5.653876901584570e-002
-1.440672453767707e-001 4.027597018341691e-001
-5.088652097076978e-001 8.830925794220611e-001
-2.020777960183384e-002 8.224524643162241e-003
1.000000000000000e+000 -1.000000000000000e+000
-1.751587421365599e-001 4.982414775299148e-001
-2.829596393285052e-001 6.577812828174197e-001
1.424060847167745e-001 -5.687071041829781e-002
1.000000000000000e+000 -5.571428571428572e-001
8.507787419373140e-001 -3.369125214270866e-001
2.111859801658061e-001 -5.978765859033420e-002
-6.037690776058899e-002 2.843516472986198e-001
5.528279976902233e-002 -3.478396419599433e-002
4.643519803946921e-001 -9.045573146967856e-002
6.362147386094118e-001 -2.010069246331982e-001
-3.131344841248789e-001 7.664027076400629e-001
7.154432565507812e-003 -1.895995642785501e-002
-1.896988786682515e-002 2.952425670406251e-002
-5.857142857142856e-001 1.000000000000000e+000
0.000000000000000e+000 1.219230769230769e-001
-3.692795619329690e-001 8.817723118392617e-001
-6.848786038230059e-002 3.657143562828853e-001
0.000000000000000e+000 1.782051282051282e-001
-1.841520852303780e-001 6.128370481115025e-001
3.217307692307693e-001 0.000000000000000e+000
0.000000000000000e+000 7.596153846153847e-002
1.000000000000000e+000 -4.142857142857144e-001
7.644110418929314e-001 -2.133734845408655e-001
0.000000000000000e+000 0.000000000000000e+000
2.753808778730458e-002 -1.924943479809822e-002
9.653998398545557e-002 -3.292694885792916e-002
4.089743589743590e-001 0.000000000000000e+000
-7.923849862446632e-002 4.572225974685227e-001
5.722557899634529e-001 -9.718615243200716e-002
0.000000000000000e+000 2.448076923076923e-001
2.448076923076923e-001 0.000000000000000e+000
1.782051282051281e-001 0.000000000000000e+000
0.000000000000000e+000 4.032051282051282e-002
0.000000000000000e+000 1.500000000000000e-002
-4.428571428571428e-001 1.000000000000000e+000
-1.988433866113583e-001 7.294034922656278e-001
-8.882923340063054e-002 5.607271973688981e-001
0.000000000000000e+000 3.217307692307693e-001
-2.175599807224296e-001 8.683899238578586e-001
1.000000000000000e+000 -2.738095238095239e-001
8.878041780698785e-001 -2.141910999776718e-001
1.219230769230768e-001 0.000000000000000e+000
4.032051282051263e-002 0.000000000000000e+000
6.906877842176553e-001 -1.037955448482592e-001
7.596153846153830e-002 0.000000000000000e+000
5.065384615384616e-001 0.000000000000000e+000
1.499999999999979e-002 0.000000000000000e+000
0.000000000000000e+000 4.089743589743590e-001
-2.976190476190476e-001 1.000000000000000e+000
-9.533802517461519e-002 6.743517303289409e-001
8.229089109816273e-001 -1.111837258263009e-001
0.000000000000000e+000 5.065384615384616e-001
6.144230769230770e-001 0.000000000000000e+000
-1.008400764103844e-001 7.952616852459223e-001
1.000000000000000e+000 -1.357142857142859e-001
0.000000000000000e+000 6.144230769230770e-001
-1.500000000000000e-001 1.000000000000000e+000
-9.365524378347706e-002 9.050139782792629e-001
7.326282051282051e-001 0.000000000000000e+000
0.000000000000000e+000 7.326282051282051e-001
8.611538461538462e-001 0.000000000000000e+000
0.000000000000000e+000 8.611538461538462e-001
0.000000000000000e+000 1.000000000000000e+000
1.000000000000000e+000 0.000000000000000e+000
   1    2    3     3 
   1    3    4     4 
   1    4    5     5 
   3    6    4     4 
   7    5    4     4 
   3    8    6     6 
   4    6    9     9 
   7    4    9     9 
   7   10    5     5 
   6    8   11    11 
   6   12    9     9 
   7    9   13    13 
   6   11   12    12 
   7   14   10    10 
  13   14    7     7 
   8   15   11    11 
  12   16    9     9 
  16   13    9     9 
  12   11   17    17 
  10   14   18    18 
  19   11   15    15 
  20   14   13    13 
  17   11   19    19 
  12   21   16    16 
  12   17   21    21 
  16   22   13    13 
  23   18   14    14 
  20   23   14    14 
  24   20   13    13 
  19   15   25    25 
  24   13   22    22 
  21   22   16    16 
  17   19   26    26 
  17   27   21    21 
  23   28   18    18 
  17   26   27    27 
  29   23   20    20 
  21   30   22    22 
  19   25   31    31 
  32   20   24    24 
  26   19   31    31 
  27   30   21    21 
  33   24   22    22 
  32   29   20    20 
  23   34   28    28 
  22   30   33    33 
  29   34   23    23 
  35   27   26    26 
  25   36   31    31 
  24   37   32    32 
  33   37   24    24 
  26   31   38    38 
  27   39   30    30 
  35   26   38    38 
  32   40   29    29 
  35   39   27    27 
  34   41   28    28 
  42   34   29    29 
  30   43   33    33 
  44   31   36    36 
  42   29   40    40 
  30   39   43    43 
  38   31   44    44 
  32   37   45    45 
  33   46   37    37 
  32   45   40    40 
  35   38   47    47 
  33   43   46    46 
  48   39   35    35 
  49   41   34    34 
  49   34   42    42 
  44   36   50    50 
  48   35   47    47 
  39   51   43    43 
  45   37   52    52 
  37   46   52    52 
  38   44   53    53 
  42   40   54    54 
  48   51   39    39 
  47   38   55    55 
  40   45   56    56 
  49   42   54    54 
  43   57   46    46 
  38   53   55    55 
  49   58   41    41 
  40   56   54    54 
  51   57   43    43 
  44   50   59    59 
  48   47   60    60 
  53   44   59    59 
  52   61   45    45 
  62   52   46    46 
  56   45   61    61 
  47   55   60    60 
  63   51   48    48 
  46   57   62    62 
  64   49   54    54 
  63   48   60    60 
  49   65   58    58 
  66   57   51    51 
  55   53   67    67 
  50   68   59    59 
  64   65   49    49 
  54   56   69    69 
  63   66   51    51 
  53   59   70    70 
  71   61   52    52 
  71   52   62    62 
  54   69   64    64 
  72   60   55    55 
  56   61   73    73 
  67   53   70    70 
  57   74   62    62 
  72   55   67    67 
  74   57   66    66 
  65   75   58    58 
  63   60   76    76 
  69   56   77    77 
  78   59   68    68 
  56   73   77    77 
  70   59   78    78 
  76   60   72    72 
  63   79   66    66 
  80   65   64    64 
  81   61   71    71 
  82   71   62    62 
  73   61   81    81 
  83   64   69    69 
  62   74   82    82 
  63   76   79    79 
  84   67   70    70 
  85   72   67    67 
  86   75   65    65 
  74   66   87    87 
  80   64   83    83 
  86   65   80    80 
  79   87   66    66 
  78   68   88    88 
  69   77   89    89 
  85   67   84    84 
  76   72   90    90 
  70   78   91    91 
  89   83   69    69 
  77   73   92    92 
  84   70   91    91 
  81   71   93    93 
  82   93   71    71 
  90   72   85    85 
  94   73   81    81 
  76   95   79    79 
  74   96   82    82 
  87   96   74    74 
  86   97   75    75 
  94   92   73    73 
  98   80   83    83 
  78   88   99    99 
  86   80  100   100 
  76   90  101   101 
  79  102   87    87 
  91   78   99    99 
  81   93   94    94 
  77  103   89    89 
  98   83   89    89 
  77   92  103   103 
  76  101   95    95 
 104   85   84    84 
  95  102   79    79 
 100   80   98    98 
  93   82  105   105 
  85  106   90    90 
  84   91  107   107 
  82   96  105   105 
  86  108   97    97 
 109   96   87    87 
 108   86  100   100 
  85  104  106   106 
 104   84  107   107 
  94  110   92    92 
  88  111   99    99 
 109   87  102   102 
  94   93  112   112 
  98   89  113   113 
  91   99  114   114 
  89  103  113   113 
 115  101   90    90 
 112   93  105   105 
 115   90  106   106 
 116  103   92    92 
 107   91  114   114 
 117   95  101   101 
 117  102   95    95 
  94  112  110   110 
 100   98  118   118 
 116   92  110   110 
 105   96  119   119 
  96  109  119   119 
 108  120   97    97 
  98  113  118   118 
 121  108  100   100 
 122   99  111   111 
 123  106  104   104 
 124  109  102   102 
 114   99  122   122 
 107  125  104   104 
 121  100  118   118 
 113  103  126   126 
 115  127  101   101 
 117  124  102   102 
 101  127  117   117 
 103  116  126   126 
 112  105  128   128 
 106  129  115   115 
 107  114  130   130 
 123  104  125   125 
 105  119  128   128 
 131  110  112   112 
 123  129  106   106 
 132  116  110   110 
 133  120  108   108 
 134  119  109   109 
 121  135  108   108 
 109  124  134   134 
 136  118  113   113 
 107  137  125   125 
 122  111  138   138 
 132  110  131   131 
 107  130  137   137 
 113  126  136   136 
 114  122  139   139 
 133  108  135   135 
 121  118  140   140 
 112  128  141   141 
 142  124  117   117 
 130  114  139   139 
 131  112  141   141 
 115  143  127   127 
 142  117  127   127 
 126  116  144   144 
 115  129  143   143 
 116  132  144   144 
 128  119  145   145 
 123  125  146   146 
 136  140  118   118 
 145  119  134   134 
 123  147  129   129 
 133  148  120   120 
 135  121  149   149 
 150  134  124   124 
 137  146  125   125 
 121  140  149   149 
 122  138  151   151 
 139  122  151   151 
 136  126  152   152 
 124  142  150   150 
 153  132  131   131 
 146  147  123   123 
 137  130  154   154 
 144  152  126   126 
 133  135  155   155 
 127  156  142   142 
 143  156  127   127 
 130  139  157   157 
 158  141  128   128 
 159  143  129   129 
 158  128  145   145 
 141  160  131   131 
 147  159  129   129 
 144  132  161   161 
 140  136  162   162 
 154  130  157   157 
 145  134  163   163 
 153  131  160   160 
 133  164  148   148 
 132  153  161   161 
 163  134  150   150 
 165  146  137   137 
 162  136  152   152 
 166  135  149   149 
 155  164  133   133 
 138  167  151   151 
 166  155  135   135 
 154  165  137   137 
 149  140  168   168 
 139  151  169   169 
 141  158  160   160 
 142  170  150   150 
 171  147  146   146 
 169  157  139   139 
 156  170  142   142 
 172  152  144   144 
 140  162  168   168 
 173  156  143   143 
 173  143  159   159 
 174  158  145   145 
 172  144  161   161 
 159  147  175   175 
 171  146  165   165 
 176  145  163   163 
 154  157  177   177 
 178  148  164   164 
 163  150  179   179 
 180  153  160   160 
 175  147  171   171 
 161  153  181   181 
 174  145  176   176 
 182  162  152   152 
 166  149  183   183 
 150  170  179   179 
 149  168  183   183 
 184  151  167   167 
 158  185  160   160 
 169  151  184   184 
 186  164  155   155 
 182  152  172   172 
 154  187  165   165 
 186  155  166   166 
 169  188  157   157 
 153  180  181   181 
 170  156  189   189 
 189  156  173   173 
 162  190  168   168 
 188  177  157   157 
 191  154  177   177 
 187  171  165   165 
 173  159  192   192 
 180  160  185   185 
 193  158  174   174 
 172  161  194   194 
 159  175  195   195 
 191  187  154   154 
 182  190  162   162 
 176  163  196   196 
 181  194  161   161 
 193  185  158   158 
 163  179  196   196 
 197  178  164   164 
 198  175  171   171 
 192  159  195   195 
 197  164  186   186 
 170  199  179   179 
 166  183  200   200 
 174  176  201   201 
 186  166  200   200 
 184  167  202   202 
 183  168  203   203 
 187  198  171   171 
 184  204  169   169 
 199  170  189   189 
 172  205  182   182 
 203  168  190   190 
 169  204  188   188 
 206  181  180   180 
 189  173  207   207 
 172  194  205   205 
 173  192  207   207 
 185  208  180   180 
 176  196  201   201 
 188  209  177   177 
 193  174  210   210 
 177  209  191   191 
 175  211  195   195 
 212  190  182   182 
 198  211  175   175 
 210  174  201   201 
 213  196  179   179 
 214  178  197   197 
 215  194  181   181 
 179  199  213   213 
 180  208  206   206 
 216  185  193   193 
 191  217  187   187 
 212  182  205   205 
 197  186  218   218 
 215  181  206   206 
 187  217  198   198 
 219  200  183   183 
 186  200  218   218 
 219  183  203   203 
 184  202  220   220 
 184  220  204   204 
 195  221  192   192 
 185  216  208   208 
 199  189  222   222 
 188  204  223   223 
 224  203  190   190 
 189  207  222   222 
 188  223  209   209 
 201  196  225   225 
 226  207  192   192 
 224  190  212   212 
 205  194  227   227 
 228  191  209   209 
 229  193  210   210 
 225  196  213   213 
 215  227  194   194 
 195  211  230   230 
 228  217  191   191 
 216  193  229   229 
 226  192  221   221 
 211  198  231   231 
 214  197  232   232 
 201  233  210   210 
 199  234  213   213 
 217  231  198   198 
 195  230  221   221 
 218  232  197   197 
 235  206  208   208 
 236  212  205   205 
 222  234  199   199 
 218  200  237   237 
 226  222  207   207 
 219  237  200   200 
 201  225  233   233 
 238  215  206   206 
 220  202  239   239 
 219  203  240   240 
 241  208  216   216 
 220  242  204   204 
 240  203  224   224 
 227  236  205   205 
 204  243  223   223 
 244  209  223   223 
 235  238  206   206 
 228  209  244   244 
 245  224  212   212 
 225  213  246   246 
 241  235  208   208 
 229  210  247   247 
 211  248  230   230 
 204  242  243   243 
 247  210  233   233 
 231  248  211   211 
 215  249  227   227 
 213  234  246   246 
 229  250  216   216 
 251  217  228   228 
 232  252  214   214 
 251  231  217   217 
 221  253  226   226 
 226  254  222   222 
 238  249  215   215 
 236  255  212   212 
 218  256  232   232 
 216  250  241   241 
 257  221  230   230 
 254  234  222   222 
 237  256  218   218 
 255  245  212   212 
 219  258  237   237 
 259  233  225   225 
 220  239  260   260 
 261  219  240   240 
 260  242  220   220 
 227  262  236   236 
 229  247  250   250 
 240  224  263   263 
 214  252  264   264 
 223  243  265   265 
 257  253  221   221 
 223  265  244   244 
 245  263  224   224 
 226  253  254   254 
 225  246  266   266 
 227  249  262   262 
 261  258  219   219 
 228  244  267   267 
 235  268  238   238 
 241  269  235   235 
 251  228  267   267 
 270  230  248   248 
 259  225  266   266 
 271  248  231   231 
 234  272  246   246 
 233  273  247   247 
 251  271  231   231 
 232  274  252   252 
 242  275  243   243 
 254  272  234   234 
 256  274  232   232 
 238  276  249   249 
 257  230  277   277 
 259  273  233   233 
 278  241  250   250 
 236  279  255   255 
 269  268  235   235 
 237  280  256   256 
 237  258  280   280 
 270  277  230   230 
 260  275  242   242 
 236  262  279   279 
 281  250  247   247 
 260  239  282   282 
 268  276  238   238 
 255  283  245   245 
 261  240  284   284 
 240  263  284   284 
 278  269  241   241 
 245  283  263   263 
 254  253  285   285 
 243  286  265   265 
 244  265  287   287 
 287  267  244   244 
 257  288  253   253 
 289  262  249   249 
 281  247  273   273 
 290  266  246   246 
 243  275  286   286 
 290  246  272   272 
 291  270  248   248 
 271  291  248   248 
 251  267  292   292 
 254  285  272   272 
 293  258  261   261 
 251  292  271   271 
 276  289  249   249 
 255  279  283   283 
 294  259  266   266 
 257  277  288   288 
 250  295  278   278 
 256  296  274   274 
 250  281  295   295 
 288  285  253   253 
 259  294  273   273 
 256  280  296   296 
 297  268  269   269 
 298  280  258   258 
 293  261  284   284 
 262  299  279   279 
 268  300  276   276 
 283  301  263   263 
 263  301  284   284 
 302  277  270   270 
 293  298  258   258 
 289  299  262   262 
 278  303  269   269 
 265  286  304   304 
 304  287  265   265 
 287  305  267   267 
 306  281  273   273 
 290  307  266   266 
 305  292  267   267 
 272  285  308   308 
 297  300  268   268 
 266  307  294   294 
 303  297  269   269 
 291  309  270   270 
 272  308  290   290 
 310  283  279   279 
 306  273  294   294 
 271  311  291   291 
 292  311  271   271 
 312  289  276   276 
 288  277  313   313 
 270  309  302   302 
 288  314  285   285 
 300  312  276   276 
 299  310  279   279 
 295  315  278   278 
 316  295  281   281 
 302  313  277   277 
 317  296  280   280 
 298  317  280   280 
 284  318  293   293 
 278  315  303   303 
 281  306  316   316 
 283  319  301   301 
 284  301  318   318 
 289  320  299   299 
 293  321  298   298 
 310  319  283   283 
 304  322  287   287 
 288  313  314   314 
 323  305  287   287 
 308  285  324   324 
 312  320  289   289 
 307  290  325   325 