VARIABLES = X, Y
ZONE I=1437, J=2732, F=FEPOINT
-9.541217099908673e-001 -9.551818950391207e-001
-1.000000000000000e+000 -1.000000000000000e+000
-9.299999999999999e-001 -1.000000000000000e+000
-1.000000000000000e+000 -9.320689655172418e-001
-8.973027537500388e-001 -9.441727715005995e-001
-9.432786187620880e-001 -8.995737821957813e-001
-8.600738916256158e-001 -1.000000000000000e+000
-1.000000000000000e+000 -8.640640394088674e-001
-8.694826019269307e-001 -8.711014178003059e-001
-8.267736230441516e-001 -9.389758191833489e-001
-9.387015377660705e-001 -8.306358512982968e-001
-7.902216748768472e-001 -1.000000000000000e+000
-1.000000000000000e+000 -7.959852216748773e-001
-7.884603537315655e-001 -8.784161809118606e-001
-8.788063809992087e-001 -7.918094694548738e-001
-7.549193908766493e-001 -9.399397106747037e-001
-8.128566388851421e-001 -8.136299944568458e-001
-9.406014524055900e-001 -7.609721572135720e-001
-7.204433497536946e-001 -1.000000000000000e+000
-7.184667806472378e-001 -8.816437277100945e-001
-1.000000000000000e+000 -7.278325123152714e-001
-7.478702580921780e-001 -8.248689216111402e-001
-8.263317379993737e-001 -7.484640060121479e-001
-8.848113889922266e-001 -7.255253232154359e-001
-6.848556817642922e-001 -9.404778352794266e-001
-9.413324510278277e-001 -6.937192205984686e-001
-7.659265381501873e-001 -7.665849324707876e-001
-6.849745129283901e-001 -8.253885665035615e-001
-6.507389162561577e-001 -1.000000000000000e+000
-6.491477662558769e-001 -8.806737682663833e-001
-1.000000000000000e+000 -6.596059113300496e-001
-8.387123610140833e-001 -6.953414150754964e-001
-7.159997765230780e-001 -7.832079828976075e-001
-7.768780931598233e-001 -6.972945107216736e-001
-8.832282679108210e-001 -6.623457757345247e-001
-6.150508472525124e-001 -9.406772323166321e-001
-9.394830403332389e-001 -6.257909252352528e-001
-6.122165742019439e-001 -8.145188647599688e-001
-7.153312267774279e-001 -7.315663259269920e-001
-6.654224753881232e-001 -7.673913382451976e-001
-5.811083743842365e-001 -1.000000000000000e+000
-5.786775893707171e-001 -8.815668377443542e-001
-8.225082687444020e-001 -6.426603564447386e-001
-1.000000000000000e+000 -5.913054187192122e-001
-8.728377533823181e-001 -5.907019984540111e-001
-7.098415248350708e-001 -6.686503351648510e-001
-5.454299314839109e-001 -9.416188816917467e-001
-7.596497190282308e-001 -6.272401946196163e-001
-6.057504626952673e-001 -7.436674637573962e-001
-6.576074417686132e-001 -7.059012495451512e-001
-5.401180206819142e-001 -8.273546976567361e-001
-9.397105085645737e-001 -5.569568207005885e-001
-5.605464424966387e-001 -7.759471072080391e-001
-8.042010883756191e-001 -5.827102864568738e-001
-5.115517241379310e-001 -1.000000000000000e+000
-5.095621605958893e-001 -8.851426937293567e-001
-6.993562978270038e-001 -6.058002660934491e-001
-1.000000000000000e+000 -5.229310344827589e-001
-6.503340322133372e-001 -6.437264486264201e-001
-8.846571772060449e-001 -5.216386910609332e-001
-5.985877653563000e-001 -6.801386891962850e-001
-8.366246338642650e-001 -5.427338832956405e-001
-4.763988482317887e-001 -9.427919858279700e-001
-5.394172089019852e-001 -7.181184166311612e-001
-7.456352734134163e-001 -5.660197661055069e-001
-5.046050609557576e-001 -7.763774611120505e-001
-4.745071082568004e-001 -8.312647237036427e-001
-9.415131711414063e-001 -4.894127690977916e-001
-6.423945680419938e-001 -5.830702134610686e-001
-7.886852635784535e-001 -5.268030583356857e-001
-4.420689655172413e-001 -1.000000000000000e+000
-4.419598786756879e-001 -8.870918501011927e-001
-5.942524688262115e-001 -6.184462296641741e-001
-6.888399546166791e-001 -5.457848613871178e-001
-8.333421159095594e-001 -4.918936918122443e-001
-5.437166682314284e-001 -6.507228213631625e-001
-1.000000000000000e+000 -4.544827586206899e-001
-8.843748919263296e-001 -4.582864838515709e-001
-4.709231205306648e-001 -7.265457836873425e-001
-4.415124645801915e-001 -7.795051665809268e-001
-4.077769151780086e-001 -9.434740952931885e-001
-7.339847986575979e-001 -5.076315207838906e-001
-4.090029628007252e-001 -8.329653291378752e-001
-4.909329328427702e-001 -6.734083610811569e-001
-5.882792820783931e-001 -5.598775950933884e-001
-6.338162469279262e-001 -5.244470775909600e-001
-9.405074451775371e-001 -4.223117499209608e-001
-7.792820280209011e-001 -4.698790391270943e-001
-5.421401460019609e-001 -5.927663249362274e-001
-3.726600985221674e-001 -1.000000000000000e+000
-3.745302879650165e-001 -8.878073050886141e-001
-8.271703459414618e-001 -4.322177380515926e-001
-6.788303130733078e-001 -4.874968392919323e-001
-4.110380881715809e-001 -7.301507468107147e-001
-4.964325500915379e-001 -6.211284993169129e-001
-3.785996505881356e-001 -7.801689067142396e-001
-4.373081574240140e-001 -6.817440415835980e-001
-1.000000000000000e+000 -3.859605911330051e-001
-8.794204349039747e-001 -3.924660383078609e-001
-7.238454831278842e-001 -4.497159648991541e-001
-3.391775922878868e-001 -9.437025321935000e-001
-5.807045984347158e-001 -5.029955330747745e-001
-3.429193416681851e-001 -8.326832106793733e-001
-5.367689827393471e-001 -5.371552646203782e-001
-6.247896398253995e-001 -4.670831056461455e-001
-4.569903018100699e-001 -6.418944473518380e-001
-7.697668031459276e-001 -4.110873977963184e-001
-4.932351936921009e-001 -5.688891443715293e-001
-9.377860645441455e-001 -3.533917757241647e-001
-3.527594556585068e-001 -7.288636658998487e-001
-3.033251231527093e-001 -1.000000000000000e+000
-8.175074641202835e-001 -3.698656288787639e-001
-3.844664340919535e-001 -6.839660049725396e-001
-3.065972909497100e-001 -8.876390379713577e-001
-6.690378227397650e-001 -4.300177716456983e-001
-3.141205644838483e-001 -7.770181580552338e-001
-4.509622597824010e-001 -5.986950087748095e-001
-4.085919934414398e-001 -6.341523985022316e-001
-5.292904556979742e-001 -4.821889997948137e-001
-1.000000000000000e+000 -3.173645320197045e-001
-7.135818801075570e-001 -3.920128208810720e-001
-5.720581102489886e-001 -4.467264582103636e-001
-8.693204620615204e-001 -3.188773785918922e-001
-2.704105943701608e-001 -9.436857098136738e-001
-4.872344688435639e-001 -5.158151237179490e-001
-2.748148231360106e-001 -8.308313005581516e-001
-7.583319695370080e-001 -3.528068804898150e-001
-6.155065545075505e-001 -4.102635680171809e-001
-3.335689714918169e-001 -6.805581973801332e-001
-4.456610546913902e-001 -5.474506303039876e-001
-2.941035195839152e-001 -7.208784803693525e-001
-9.373202467077842e-001 -2.834311787551914e-001
-3.625933387786416e-001 -6.478445053600399e-001
-2.340640394088670e-001 -1.000000000000000e+000
-8.015380264148629e-001 -3.117874670414565e-001
-4.042375654303700e-001 -5.783237689626063e-001
-6.591699578940808e-001 -3.730319008576116e-001
-2.380933496677617e-001 -8.874202349878111e-001
-5.200818882157218e-001 -4.269136490801557e-001
-2.413094282348858e-001 -7.682947125000112e-001
-4.794144725099848e-001 -4.629589691101950e-001
-7.028136505906898e-001 -3.350818644758353e-001
-5.628245697767114e-001 -3.901233854617849e-001
-3.625198162237069e-001 -6.061113722262638e-001
-1.000000000000000e+000 -2.486945812807881e-001
-8.789324135225168e-001 -2.485349594348776e-001
-4.392173102848616e-001 -4.959192806900646e-001
-2.014881748753176e-001 -9.434773874675755e-001
-8.324596309231307e-001 -2.726796227362973e-001
-2.835641280862980e-001 -6.671036585444939e-001
-7.458056185549043e-001 -2.968637456400370e-001
-3.229602216983400e-001 -6.339633163261622e-001
-2.060423528788654e-001 -8.316137499174308e-001
-6.063511819684643e-001 -3.537568184481554e-001
-3.988915229189050e-001 -5.268809684505922e-001
-2.386049756801676e-001 -7.025001945066615e-001
-9.374647744752003e-001 -2.136903458708981e-001
-6.491411484812782e-001 -3.163790076506423e-001
-4.694486120353328e-001 -4.109098945123521e-001
-3.582638401847842e-001 -5.564706986772915e-001
-1.648768472906404e-001 -1.000000000000000e+000
-5.077829677850061e-001 -3.676762011053092e-001
-7.860790102648630e-001 -2.595905359967526e-001
-1.696144072786090e-001 -8.870404527908399e-001
-4.314955294138408e-001 -4.454777653859553e-001
-6.921820050059480e-001 -2.790003283199923e-001
-1.727303031126407e-001 -7.826047118578990e-001
-8.260979865151351e-001 -2.245651221637558e-001
-1.884732997112587e-001 -7.311745244310077e-001
-3.176663806478173e-001 -5.855852052005001e-001
-5.556457215808275e-001 -3.343192848219174e-001
-1.000000000000000e+000 -1.799507389162560e-001
-3.927721287173758e-001 -4.767649125526870e-001
-2.769009906330462e-001 -6.159718783852774e-001
-8.701840822202748e-001 -1.778690600293470e-001
-2.343186609586595e-001 -6.477459834152463e-001
-1.322001730378030e-001 -9.425576454519350e-001
-5.966154958334876e-001 -2.974311899431338e-001
-7.347367579178784e-001 -2.427867779255362e-001
-3.531371376399086e-001 -5.063920214992405e-001
-1.400153861033542e-001 -8.324639808539943e-001
-4.555776098148969e-001 -3.641412241085637e-001
-4.222508718747804e-001 -3.975090780341631e-001
-6.387956797495717e-001 -2.593349907788707e-001
-1.891384262530880e-001 -6.782957955797233e-001
-9.377212324697036e-001 -1.435429993239804e-001
-3.127932544338879e-001 -5.355437669452298e-001
-7.759003507340706e-001 -2.088535894887744e-001
-5.118670998381122e-001 -3.134117268304008e-001
-1.446857043284235e-001 -7.476904677098133e-001
-9.576354679802956e-002 -1.000000000000000e+000
-3.860376204828324e-001 -4.284942532769548e-001
-1.003925996007167e-001 -8.840016374534714e-001
-8.123817623947438e-001 -1.798148493032363e-001
-4.784693173779293e-001 -3.326018719699465e-001
-2.719758603607189e-001 -5.652104486109734e-001
-6.828589415636760e-001 -2.233519673349575e-001
-1.159709859080088e-001 -7.824655968352238e-001
-5.481842767681833e-001 -2.823995114858988e-001
-2.301699365542968e-001 -5.955392521912607e-001
-3.480739831951958e-001 -4.575188567093043e-001
-1.439835710305313e-001 -7.055626237081348e-001
-1.000000000000000e+000 -1.111330049261083e-001
-1.867417583728058e-001 -6.257803159448052e-001
-8.782040475082393e-001 -1.042872505826029e-001
-5.817616595632290e-001 -2.376542270918238e-001
-4.120758239502406e-001 -3.528531515531189e-001
-3.081299831998904e-001 -4.854469826762851e-001
-7.262038217793415e-001 -1.891405907018443e-001
-6.147786903961720e-002 -9.404754946110523e-001
-8.193357129959525e-001 -1.304313270385093e-001
-7.592434161704226e-002 -8.255467994993143e-001
-3.786367353938516e-001 -3.827556053054486e-001
-4.426108479927731e-001 -3.224648531720727e-001
-6.308533865974649e-001 -2.019521259657916e-001
-7.698048202547777e-001 -1.573521575770827e-001
-2.674751414544548e-001 -5.143271653876925e-001
-4.733355357160526e-001 -2.945111098947688e-001
-1.420397499081316e-001 -6.550471169413855e-001
-1.022426500901680e-001 -7.345599050714829e-001
-5.064336486888626e-001 -2.680027148026370e-001
-9.397642132504168e-001 -7.410907734311399e-002
-3.431579600427772e-001 -4.110023521422856e-001
-2.265100296910680e-001 -5.440815697942791e-001
-2.672413793103445e-002 -1.000000000000000e+000
-2.389654683151809e-002 -8.750197689355650e-001
-1.840466845711599e-001 -5.736242214897461e-001
-5.357668041553153e-001 -2.428788774782603e-001
-6.751839358068906e-001 -1.680754602952524e-001
-3.054901655311822e-001 -4.374303943190121e-001
-6.070174871394423e-002 -7.696773866983134e-001
-8.190211982271061e-001 -6.183174899396628e-002
-3.705516880506651e-001 -3.395496158865630e-001
-4.019889974526741e-001 -3.103943251925997e-001
-9.698459055946758e-002 -6.840949120425236e-001
-5.819693579525255e-001 -1.773714318167362e-001
-1.401320289306803e-001 -6.028864259231436e-001
-1.000000000000000e+000 -4.224137931034488e-002
-2.619954732840338e-001 -4.619667686030386e-001
-7.191811481415002e-001 -1.347742341292531e-001
-8.821510361644190e-001 -3.754603608076774e-002
-7.655940177001644e-001 -1.013059709201592e-001
-4.326453944780862e-001 -2.797654436403885e-001
-5.396832143685032e-001 -2.020957263957593e-001
9.578498556503579e-003 -9.409370458672496e-001
-3.375647566293511e-001 -3.672193978442431e-001
-1.547715670021059e-002 -8.080696507050459e-001
-4.659763902259688e-001 -2.502893475692771e-001
-2.234462872469262e-001 -4.939401836553040e-001
-6.249887473289524e-001 -1.462492206199037e-001
-5.015378343885487e-001 -2.241741689274864e-001
-1.817462066358609e-001 -5.215198227253924e-001
-5.129839431186006e-002 -7.152470621155058e-001
-3.033182262170068e-001 -3.931005903413560e-001
-9.475458944330324e-002 -6.314480637041905e-001
-9.398097913135207e-001 -5.557773660544128e-003
-1.386133867586036e-001 -5.508955938494887e-001
-3.616665669574126e-001 -2.984915095144667e-001
-6.676733346411341e-001 -1.135225988850279e-001
-2.684892702047524e-001 -4.162747651143743e-001
4.224137931034488e-002 -1.000000000000000e+000
4.811553108163147e-002 -8.867607804553419e-001
2.712152752006378e-002 -8.385885870958987e-001
-8.388713780663691e-001 -9.519183965544005e-003
-7.549694804344442e-001 -4.381877255637884e-002
-3.910356143687720e-001 -2.692950357525759e-001
-4.014895128319234e-003 -7.500475724191977e-001
-3.307945285147866e-001 -3.258497506740611e-001
-5.372763296917809e-001 -1.526266158113526e-001
-7.109919172098218e-001 -7.971056873403794e-002
-5.771334860388579e-001 -1.242273692131209e-001
-4.740274205802059e-002 -6.601558169382251e-001
-2.222296568515623e-001 -4.556586036490552e-001
-4.189205019194556e-001 -2.317047640100944e-001
-9.415559953014556e-002 -5.787821881223062e-001
-1.000000000000000e+000 2.672413793103445e-002
-4.986893864934092e-001 -1.783643190767256e-001
-7.930152637678575e-001 -5.381153063553404e-003
-8.762405422762590e-001 3.067303075728890e-002
-2.387817645642339e-001 -4.314292331124919e-001
-4.607490425574501e-001 -2.038038449854324e-001
-2.988722365283351e-001 -3.516511070948445e-001
-1.806210090926692e-001 -4.662024641659289e-001
7.861318924441613e-002 -9.432932453634665e-001
-6.176638535765241e-001 -9.301678275397418e-002
-1.369966711513502e-001 -4.997953865112921e-001
4.342372775901590e-002 -7.883226847250026e-001
-2.664427873930522e-001 -3.758919230131930e-001
3.248561768043466e-003 -6.906246639036308e-001
-3.518605649477486e-001 -2.597340681009158e-001
8.238271885322039e-002 -8.344721105283215e-001
-3.229425639419789e-001 -2.866200283041785e-001
-4.745284714531805e-002 -6.055163285540041e-001
-6.586988024445135e-001 -5.992469173043165e-002
-9.401190544358445e-001 6.360747565413147e-002
-9.429408689207763e-002 -5.274790714016825e-001
-7.001381347832702e-001 -2.520468943989555e-002
-3.775994448442752e-001 -2.361718768435796e-001
-5.315468626066271e-001 -1.034198113447441e-001
-2.349021792779385e-001 -3.987693890879984e-001
-8.231335606963028e-001 2.718126455122475e-002
-7.408301688208286e-001 1.074979263784741e-002
1.111330049261083e-001 -1.000000000000000e+000
1.138261353065427e-001 -8.883739979506005e-001
-4.941960355930080e-001 -1.311762665069240e-001
-2.929505935815450e-001 -3.122316798463118e-001
-2.061310570544109e-001 -4.251359211055999e-001
5.591671351121929e-002 -7.267961999819121e-001
-4.200819983742763e-001 -1.819084384436493e-001
-5.696899060558465e-001 -7.347815489821823e-002
-4.573885587581930e-001 -1.572680676793144e-001
2.938342777066363e-003 -6.317702897970862e-001
-4.936308840984490e-002 -5.526510073830823e-001
-1.319686470013770e-001 -4.526666587479226e-001
-2.621836240344979e-001 -3.365162315041136e-001
-1.000000000000000e+000 9.576354679802956e-002
-3.821039998416154e-001 -2.015034828083296e-001
-8.824036254533163e-001 1.022737151485411e-001
1.134705661882659e-001 -7.714845408839123e-001
-6.085050910260023e-001 -4.132540616958201e-002
-7.806093980246618e-001 4.568782809023338e-002
-8.262704503221950e-001 7.527202733042937e-002
-9.436492466040229e-002 -4.790880406680304e-001
-3.141744083995540e-001 -2.492185528026923e-001
1.461817232915459e-001 -9.439704652091470e-001
-3.429072482903444e-001 -2.192109187554339e-001
-2.307967807397288e-001 -3.600545927371392e-001
-1.613093731822885e-001 -4.145395109584956e-001
-6.478644348846038e-001 -7.106775520256715e-003
1.470672859141916e-001 -8.336806113623348e-001
6.310481429433697e-002 -6.580807367021235e-001
-2.859902709066340e-001 -2.748507849628619e-001
-6.877154891773571e-001 2.868236044259843e-002
-4.876186998270578e-001 -8.454058298881990e-002
-1.713045468146778e-003 -5.763354488364094e-001
-1.984077078134615e-001 -3.847154242657131e-001
-5.201867897868873e-002 -5.022241851416785e-001
-5.236506988881667e-001 -5.533816884297035e-002
-9.418683835325652e-001 1.322515913332095e-001
-4.522366934526736e-001 -1.119426502745997e-001
-4.172373698728757e-001 -1.375741976029611e-001
-2.570066900285831e-001 -2.987166235514795e-001
-7.283074667767641e-001 6.513440589254604e-002
-3.825756306218735e-001 -1.606303783056986e-001
1.155968845926496e-001 -7.015911784415824e-001
1.799507389162560e-001 -1.000000000000000e+000
1.795094867009795e-001 -8.887692721252680e-001
-5.603457374997339e-001 -2.411517068775304e-002
-9.471448517852739e-002 -4.364692740012670e-001
-8.230971816203564e-001 1.447127294270775e-001
-2.270127803111567e-001 -3.214837129519615e-001
-1.230943219363944e-001 -4.192553527789921e-001
-7.716258630945511e-001 1.021286124271624e-001
4.797543025059892e-002 -5.983145493125256e-001
-3.491671056098451e-001 -1.801755429020135e-001
-6.369116785592466e-003 -5.239382223450418e-001
-5.974956298046794e-001 9.430894033798404e-003
1.812783697301548e-001 -7.844815059720250e-001
-3.031961790718412e-001 -2.155167813636960e-001
-1.000000000000000e+000 1.648768472906404e-001
-2.780240708038786e-001 -2.398803710146392e-001
-8.864186208967810e-001 1.679376883800721e-001
-5.581152735757891e-002 -4.547731806864134e-001
-6.350390583884209e-001 4.581163722336835e-002
-1.954369108490609e-001 -3.438367394711354e-001
1.673587934249474e-001 -7.316562112298395e-001
-1.611016565056216e-001 -3.665204891058874e-001
2.134290874414526e-001 -9.439025294470867e-001
-4.793201082749591e-001 -3.871321149535720e-002
-2.511015367999430e-001 -2.630398210085004e-001
-4.451410771443422e-001 -6.747759343558879e-002
-6.741257145145525e-001 8.321418228669844e-002
1.243883772574569e-001 -6.444611176245804e-001
2.106007697490642e-001 -8.355448394258991e-001
-1.267382038310685e-001 -3.872238127352315e-001
-4.115986755308930e-001 -9.463863874260812e-002
-3.213754246788162e-001 -1.927441369172682e-001
9.160289889015052e-002 -6.121596534915210e-001
-3.787183498227180e-001 -1.200369301637793e-001
-5.141484790653625e-001 -8.264375924928850e-003
4.214332238742714e-002 -5.443592545588930e-001
-2.230344019858215e-001 -2.849141009335068e-001
-1.183477805255724e-002 -4.740707139234543e-001
-7.147060708863829e-001 1.211807204380360e-001
-9.420756787767101e-001 1.994733431326056e-001
-3.470607300431556e-001 -1.432989958737989e-001
-9.985341594137223e-002 -4.049408661157735e-001
-7.565145454027782e-001 1.617806800424186e-001
-5.493427617137162e-001 2.413798990022072e-002
1.688742362835207e-001 -6.773143882352448e-001
-6.247770525684983e-002 -4.072469398605786e-001
-8.438136000646882e-001 1.991988068591477e-001
2.486945812807881e-001 -1.000000000000000e+000
2.447768287651714e-001 -8.881159186636506e-001
-1.934672010134362e-001 -3.056180661624928e-001
-2.695220956910616e-001 -2.073626567513270e-001
-5.842925714935442e-001 5.935171651134657e-002
2.107065966591413e-001 -7.493743648107041e-001
-2.445470989550932e-001 -2.296193399000662e-001
-1.611724066761671e-001 -3.252030788109665e-001
-3.180969574373261e-001 -1.640589260300978e-001
2.371121918106814e-001 -7.863910820091050e-001
8.991583537714069e-002 -5.662693246600049e-001
-6.186831152562807e-001 1.017359602231974e-001
-2.931300268988862e-001 -1.848840334253064e-001
3.446952989311812e-002 -4.927714903255893e-001
-7.945322865404476e-001 2.054453224303329e-001
-4.365049061162694e-001 -2.351533996035611e-002
-1.224952948133467e-001 -3.438250193742464e-001
-1.000000000000000e+000 2.340640394088670e-001
-1.928246118590581e-002 -4.285274365541183e-001
-8.851545010192169e-001 2.303762624519577e-001
-4.040080782668460e-001 -5.211435582935853e-002
-4.696830622863068e-001 6.482771361358285e-003
1.327643290938718e-001 -5.934276290244811e-001
-2.185068436269287e-001 -2.507413935878139e-001
-3.720972800669842e-001 -7.930825877986322e-002
2.133422070914505e-001 -7.066916620466358e-001
-6.599626848710377e-001 1.374138153025202e-001
2.807652431694481e-001 -9.430700685557666e-001
-9.138735737946169e-002 -3.740360697607432e-001
1.744109545097166e-001 -6.243575438454126e-001
-3.411019376469654e-001 -1.052092070850776e-001
2.723538456875471e-001 -8.329978952442255e-001
-5.033690628689362e-001 3.788663242646816e-002
-6.974625378307726e-001 1.782304219369617e-001
-1.913465377058990e-001 -2.704511716047288e-001
8.848782991244067e-002 -5.077426831465409e-001
-5.368313354145902e-001 7.072076781336624e-002
-3.119232235355419e-001 -1.298216038881023e-001
2.774016771539426e-002 -4.412449705471311e-001
-9.389504283136040e-001 2.676555226172359e-001
-2.374688336533705e-001 -1.981435563060860e-001
-1.625376000634591e-001 -2.883404661737047e-001
-7.377417578417947e-001 2.197869922167808e-001
-8.299867228599097e-001 2.480948558335580e-001
2.534383131858950e-001 -7.386743275823475e-001
-2.611072261222639e-001 -1.761740995459292e-001
-5.681664872893004e-001 1.046251986814614e-001
-2.192645809461629e-002 -3.877250456035342e-001
-2.853716910668397e-001 -1.533284537486412e-001
2.178539633641649e-001 -6.558489761637259e-001
-1.312501352501443e-001 -3.034174590083905e-001
-5.378248958966558e-002 -3.635636919738104e-001
3.173645320197045e-001 -1.000000000000000e+000
3.107078623839867e-001 -8.851492577814457e-001
-2.132648452637680e-001 -2.188043939694060e-001
1.365673372176348e-001 -5.413598000859486e-001
-3.950022586964068e-001 -9.685525448993430e-003
-4.266002210366028e-001 2.022784739088189e-002
-6.185556088454385e-001 1.477256454816876e-001
2.927828576790340e-001 -7.783443649858667e-001
-3.639925784185711e-001 -3.827908515462348e-002
-8.201360611539261e-002 -3.371576790885579e-001
6.620252632854948e-002 -4.646327053739917e-001
1.798643480077625e-001 -5.721884575642150e-001
-4.589796340938903e-001 5.123506793379038e-002
-3.329089517696382e-001 -6.563226807784020e-002
-1.000000000000000e+000 3.033251231527093e-001
8.418905428317552e-003 -4.054376751078365e-001
-7.763808403386875e-001 2.597698063721674e-001
-1.882884253565254e-001 -2.380364873045605e-001
-5.897770625083287e-001 1.344946075170528e-001
-8.697578965340883e-001 3.003774667816397e-001
-6.356451635761298e-001 1.928916426912584e-001
-1.026372455249953e-001 -3.133159362589973e-001
-3.032843648964023e-001 -9.295015513779921e-002
-4.917113491818882e-001 8.312545006463051e-002
2.611113781450985e-001 -6.882589506874702e-001
-1.624390735430385e-001 -2.555172601956707e-001
-6.800829448244389e-001 2.368272765992833e-001
2.228397232139202e-001 -6.034998223711052e-001
3.488688227160999e-001 -9.414921855439791e-001
-5.239254208682987e-001 1.153823574958528e-001
3.365549893142406e-001 -8.250344799115377e-001
-2.296312499976186e-001 -1.681700176543590e-001
-2.760050398574969e-001 -1.196768838549085e-001
1.432325969773398e-001 -4.887874926916313e-001
-1.352968199246707e-001 -2.702452667307356e-001
-2.516653961074278e-001 -1.449393788564499e-001
-2.072500593474544e-001 -1.888116073983079e-001
1.064424206620036e-001 -4.559197032816696e-001
-1.747097594269666e-002 -3.492915971117565e-001
7.327787176797898e-002 -4.253547025264424e-001
3.044444725747919e-001 -7.237659797042899e-001
-9.367048841202279e-001 3.385483522711575e-001
4.217073233514443e-002 -3.974341231005591e-001
-7.218765323268198e-001 2.771451620430868e-001
-8.106383858489783e-001 2.939014974855517e-001
-4.695225464676190e-002 -3.258228609955534e-001
-3.845411677824239e-001 3.282806925476319e-002
1.298876782800619e-002 -3.720066171467185e-001
-3.547741342690394e-001 2.734111680166264e-003
-5.546165394348072e-001 1.462140197535397e-001
1.851066830859058e-001 -5.200947313190295e-001
-4.155419728521538e-001 6.397238114541305e-002
-1.841562850247769e-001 -2.078067978215944e-001
-1.027671977361342e-001 -2.799135134585656e-001
-3.251013053340107e-001 -2.549329911881916e-002
2.664343567734951e-001 -6.357076923622107e-001
-5.878025438169239e-001 1.722332633936291e-001
3.859605911330051e-001 -1.000000000000000e+000
3.796154229295870e-001 -8.802287542252448e-001
-7.408035361678304e-002 -3.025266757414898e-001
-4.474654579711854e-001 9.568727281266516e-002
-2.913945488848732e-001 -5.209995687125617e-002
3.513554060843555e-001 -7.634029964372383e-001
2.277085619145630e-001 -5.510147631813453e-001
-1.605013156196621e-001 -2.253715029688405e-001
-6.228380944006155e-001 2.566067596158534e-001
-4.796392440528807e-001 1.277729488326289e-001
-2.657484750413127e-001 -8.456405713139058e-002
-1.000000000000000e+000 3.726600985221674e-001
-1.368404322625156e-001 -2.411614655520551e-001
-7.641206407853879e-001 3.146231690663574e-001
-8.736801229009287e-001 3.775341163408452e-001
-8.133452267884874e-001 3.469008889522294e-001
3.106722425699782e-001 -6.693610336504080e-001
-2.202230938620315e-001 -1.400732235169448e-001
-2.003973396634285e-001 -1.607842971184076e-001
-2.376074256189550e-001 -1.117413321954512e-001
-6.650755403475773e-001 2.963893331462652e-001
1.516017415026462e-001 -4.391333205959688e-001
-5.819692959170412e-001 2.212051805604528e-001
1.152025710465457e-001 -4.100960892258659e-001
-5.117849133002520e-001 1.596565689860720e-001
8.112096525339459e-002 -3.828305972101804e-001
2.710435961799888e-001 -5.825606105315843e-001
-1.270012143804744e-002 -3.123190094650343e-001
1.908895306056701e-001 -4.689563920936882e-001
4.180763504694898e-001 -9.402924763915211e-001
1.754130676576794e-002 -3.344902884931386e-001
-1.158113889007793e-001 -2.536226005385348e-001
-1.791382874358569e-001 -1.794326250841136e-001
4.110526155890876e-001 -8.095933304543340e-001
4.877925139033974e-002 -3.576756043246073e-001
-3.433015669271534e-001 4.373488418536300e-002
-3.723320602993445e-001 7.585581432945328e-002
-3.166735876171682e-001 1.338853860381444e-002
3.564173874368619e-001 -7.044138206907906e-001
-4.135228822373152e-002 -2.904435555100549e-001
-5.448933117168723e-001 1.905772756039433e-001
-9.377847896952848e-001 4.099165580330593e-001
-4.037077369419641e-001 1.077404263889355e-001
-6.834030652710131e-002 -2.690107954627578e-001
2.324556366970347e-001 -4.989764562954739e-001
-7.085053042142627e-001 3.356146028080040e-001
-2.904438861904347e-001 -1.263395777777150e-002
-1.570654719919866e-001 -1.969031797061791e-001
-4.352578598523989e-001 1.398966523319269e-001
-2.538216078144128e-001 -5.293231296757148e-002
3.152208515190159e-001 -6.151424594568810e-001
-1.346170707122340e-001 -2.134358343522769e-001
-9.159155982113391e-002 -2.479201271790597e-001
-7.546266075638348e-001 3.745639146917625e-001
-6.067983349409350e-001 3.161088047050443e-001
4.544827586206899e-001 -1.000000000000000e+000
-2.318987603940844e-001 -7.702426492599902e-002
-8.075628613830499e-001 4.205920650342204e-001
4.512776351027312e-001 -8.789715150393514e-001
-5.671149486032697e-001 2.758080530354870e-001
2.753219776996782e-001 -5.295481865432058e-001
-4.671066429163807e-001 1.723211604742075e-001
-1.930364232626936e-001 -1.354363402732828e-001
-2.092344619914598e-001 -1.190579329237884e-001
4.057360165605643e-001 -7.382917430822430e-001
-1.125396349658613e-001 -2.294476260342135e-001
1.573842294417219e-001 -3.920185533069411e-001
1.207772610673654e-001 -3.656233306065246e-001
1.960706262446389e-001 -4.195468870030354e-001
-1.735870095337403e-001 -1.529185405458600e-001
-2.677325712271037e-001 -2.953407679939890e-002
-1.000000000000000e+000 4.420689655172413e-001
3.602339901024319e-001 -6.486917959599200e-001
-8.768822144260829e-001 4.491049253978765e-001
2.086285117255720e-002 -2.974865018701797e-001
8.584633000645675e-002 -3.409845828363649e-001
-5.323842044839565e-001 2.384218649097954e-001
5.245615053885502e-002 -3.185224118306662e-001
-4.993049252715705e-001 2.048943727923042e-001
-6.507520075035177e-001 3.558561217935527e-001
-8.919332071479364e-003 -2.769318818485459e-001
-3.264925216655347e-001 8.711385083085729e-002
2.368209710122172e-001 -4.479486577392575e-001
-3.049386191445167e-001 5.019384899568602e-002
-2.083689630391979e-001 -9.596337837995456e-002
3.192493674590269e-001 -5.610392320654815e-001
-3.605720148626350e-001 1.191841544185107e-001
-1.529252199234290e-001 -1.698717068798019e-001
-3.702567380133365e-002 -2.567613544687816e-001
-2.811018108109061e-001 2.189248345783222e-002
4.876464428541722e-001 -9.404220324405487e-001
-3.911669585238504e-001 1.511168412273706e-001
4.883972944267350e-001 -8.203660581366852e-001
-6.308424997608246e-002 -2.372884499463541e-001
4.631310138616420e-001 -7.588585772972878e-001
-1.315121843143188e-001 -1.862320077211066e-001
-6.952889851664112e-001 3.950360200428228e-001
4.055364777641597e-001 -6.819066442923488e-001
2.792119169528912e-001 -4.771729071086875e-001
-2.232530788229039e-001 -4.746101572737534e-002
-4.221332334467228e-001 1.838004972993731e-001
-7.394378840960677e-001 4.346182781921550e-001
-9.393083466167841e-001 4.797590321662887e-001
-5.429327026768944e-001 3.351219673627593e-001
-1.095169387656210e-001 -2.023277393777959e-001
-2.600635282702816e-001 -3.431137970000702e-003
-8.694865320625401e-002 -2.190718113801181e-001
-2.424256992340367e-001 -2.585364242868586e-002
3.641120968525111e-001 -5.935839068626921e-001
-1.871794820602285e-001 -1.116491778062540e-001
-8.221225699903413e-001 4.895086897052217e-001
-1.680763929451334e-001 -1.280276302134473e-001
1.608571934698074e-001 -3.464103784074082e-001
-5.920798832792784e-001 3.763298799487062e-001