VARIABLES = X, Y
ZONE I=7563, J=14800, F=FEPOINT
-1.000000000000000e+000 -1.000000000000000e+000
-9.803658478801236e-001 -9.806223637235147e-001
-1.000000000000000e+000 -9.702985074626864e-001
-9.700000000000000e-001 -1.000000000000000e+000
-9.756910514338473e-001 -9.566752221681174e-001
-9.561167270319331e-001 -9.761345931284250e-001
-1.000000000000000e+000 -9.405924920850293e-001
-9.400045228403437e-001 -1.000000000000000e+000
-9.443955880691981e-001 -9.454917480637989e-001
-9.732049216468633e-001 -9.269062302654443e-001
-9.261878439942524e-001 -9.740177220877356e-001
-1.000000000000000e+000 -9.108819538670283e-001
-9.100135685210312e-001 -1.000000000000000e+000
-9.458617289901964e-001 -9.116049651157461e-001
-9.109596899137523e-001 -9.483121439795948e-001
-9.731700524480318e-001 -8.961809417872107e-001
-9.225763151069332e-001 -9.247990204821376e-001
-8.955666409005971e-001 -9.741881535806939e-001
-1.000000000000000e+000 -8.811668928086838e-001
-9.462512456397419e-001 -8.805099686229375e-001
-8.800271370420625e-001 -1.000000000000000e+000
-9.153529948768175e-001 -8.957359663341878e-001
-8.961199094761999e-001 -9.228843272780844e-001
-8.807604472664279e-001 -9.485599145716542e-001
-9.735670738412180e-001 -8.659926034286242e-001
-8.653963154152716e-001 -9.743018495294539e-001
-9.214919940317916e-001 -8.631571074698147e-001
-1.000000000000000e+000 -8.514473089099954e-001
-8.810444262186676e-001 -8.969622327286082e-001
-9.478501060689513e-001 -8.503504584147232e-001
-8.500452284034374e-001 -1.000000000000000e+000
-8.658031332367795e-001 -9.230589784868012e-001
-8.938079394270716e-001 -8.702707843900651e-001
-8.506072024843861e-001 -9.487736209883622e-001
-9.740250916731523e-001 -8.362588044425552e-001
-8.353521337150771e-001 -9.744123527085716e-001
-9.231433408055375e-001 -8.348896873188599e-001
-9.023506002295516e-001 -8.471289759520981e-001
-8.504378994551923e-001 -8.978933825915503e-001
-8.644778322596963e-001 -8.720846818834541e-001
-1.000000000000000e+000 -8.217232021709633e-001
-9.485012800202529e-001 -8.212019355540382e-001
-8.356707975065496e-001 -9.235313391994712e-001
-8.200678426051561e-001 -1.000000000000000e+000
-8.206170205202780e-001 -9.490471139682599e-001
-8.778939757294332e-001 -8.465802161182316e-001
-8.953139163173459e-001 -8.206676014235236e-001
-9.741958967943108e-001 -8.067698785114984e-001
-9.233147079038186e-001 -8.066806369320701e-001
-8.348101326599758e-001 -8.732748780420850e-001
-8.054074858018166e-001 -9.745353654762847e-001
-8.205775316605570e-001 -8.987339426714541e-001
-8.486156051744184e-001 -8.476522950332562e-001
-8.058707261552479e-001 -9.240588832000532e-001
-1.000000000000000e+000 -7.919945725915873e-001
-9.485037993146425e-001 -7.921097363284154e-001
-8.626676597099489e-001 -8.216278410264448e-001
-7.900949796472185e-001 -1.000000000000000e+000
-7.908295895788847e-001 -9.493358864235572e-001
-9.018858906699775e-001 -7.930210325086059e-001
-8.053527504385859e-001 -8.744444797887779e-001
-9.741837311004028e-001 -7.772357405844476e-001
-8.191133243853389e-001 -8.490653878661397e-001
-8.760057224690501e-001 -7.944976809150074e-001
-9.226644479368349e-001 -7.779465651258711e-001
-7.911112576349547e-001 -8.995842581995713e-001
-7.755649013842157e-001 -9.746437967095303e-001
-8.325380088397741e-001 -8.233072308941624e-001
-7.763869454808988e-001 -9.245777414891551e-001
-1.000000000000000e+000 -7.622614201718678e-001
-9.482903566505617e-001 -7.626196401479364e-001
-8.456247365000826e-001 -7.968865548241832e-001
-7.899346494224283e-001 -8.506082823310729e-001
-8.922786919745439e-001 -7.650402311541118e-001
-7.601266395296247e-001 -1.000000000000000e+000
-7.612540315736051e-001 -9.495536737729334e-001
-7.762589599991471e-001 -8.756703384868634e-001
-8.031431563638093e-001 -8.251872219151357e-001
-9.741934839299424e-001 -7.475482044555197e-001
-7.620587899867073e-001 -9.004224177912054e-001
-9.219009380870714e-001 -7.479013875882391e-001
-8.583855051459089e-001 -7.694178150696537e-001
-8.159325637748203e-001 -7.993132449997878e-001
-7.458161466674059e-001 -9.746646876065171e-001
-7.472712468621193e-001 -9.249470494888813e-001
-1.000000000000000e+000 -7.325237449118045e-001
-9.484453402370957e-001 -7.327602580038736e-001
-7.611587286686966e-001 -8.522415376600113e-001
-7.742220640170864e-001 -8.271255042288196e-001
-8.282467535441924e-001 -7.728741320495068e-001
-8.966737461445700e-001 -7.312070128403604e-001
-8.685823150829437e-001 -7.408605825905100e-001
-7.476514855992474e-001 -8.769425769384861e-001
-7.301628222523745e-001 -1.000000000000000e+000
-7.318843105517908e-001 -9.495001638548372e-001
-7.868631147337459e-001 -8.016365853917889e-001
-9.743210521916041e-001 -7.177908586453411e-001
-7.336148519928462e-001 -9.011220900212628e-001
-9.231762953967637e-001 -7.175534131407814e-001
-8.396239426252611e-001 -7.459688519125581e-001
-7.990819798978618e-001 -7.757759005534242e-001
-7.456877303131577e-001 -8.291193973642238e-001
-7.161035598292789e-001 -9.744602714994173e-001
-7.186306582579243e-001 -9.248055443385157e-001
-7.328450806444561e-001 -8.539964245203741e-001
-1.000000000000000e+000 -7.027815468113974e-001
-8.748748294483395e-001 -7.135063520217314e-001
-9.488989349476525e-001 -7.029890994486299e-001
-7.582126144261746e-001 -8.038855061883092e-001
-8.108062423709339e-001 -7.495677949234786e-001
-8.992080877725178e-001 -7.020958752482587e-001
-7.197763173906183e-001 -8.782906453296443e-001
-8.495805825384015e-001 -7.196713713756079e-001
-7.002035278154681e-001 -1.000000000000000e+000
-7.703824379705116e-001 -7.783813708050010e-001
-7.025720640599369e-001 -9.487678157300549e-001
-7.063976067477290e-001 -9.014409136851916e-001
-9.744540181062235e-001 -6.880905000733164e-001
-7.174894811649125e-001 -8.312338006428073e-001
-9.239694353446845e-001 -6.882039373807193e-001
-8.220532959363096e-001 -7.230760537648019e-001
-7.298690934798157e-001 -8.061134202625592e-001
-7.821791730398662e-001 -7.526600296176902e-001
-6.862413775471761e-001 -9.738977107045161e-001
-7.050504300263637e-001 -8.560463830657202e-001
-8.769009556325692e-001 -6.880180508639117e-001
-6.903996827744964e-001 -9.231389222869822e-001
-8.580792567758342e-001 -6.989622861782344e-001
-1.000000000000000e+000 -6.730348258706467e-001
-7.420023746489074e-001 -7.808078042233527e-001
-9.490992847701157e-001 -6.734859679208457e-001
-6.930707490071267e-001 -8.801137792465429e-001
-7.935790616677724e-001 -7.267841896817190e-001
-8.995266539035378e-001 -6.739704096705182e-001
-8.340234382947730e-001 -6.953826372874616e-001
-6.702487562189055e-001 -1.000000000000000e+000
-7.538343035630332e-001 -7.553842317093720e-001
-6.726081154302160e-001 -9.468085572887713e-001
-7.017384410403470e-001 -8.083727239656925e-001
-6.831503209197913e-001 -9.010836330839673e-001
-6.895035809805425e-001 -8.335884394163365e-001
-9.744654449436827e-001 -6.584680962752855e-001
-9.239118423002282e-001 -6.591167187218092e-001
-7.138534663409084e-001 -7.831328074660560e-001
-8.045331400854495e-001 -7.008310709162943e-001
-8.547218409081611e-001 -6.781079270015633e-001
-7.653501925158337e-001 -7.299082885141547e-001
-6.775053303324804e-001 -8.588655792310259e-001
-6.560095284272748e-001 -9.733076034201814e-001
-8.747124304736853e-001 -6.614032459988509e-001
-6.595056511418317e-001 -9.158018274661340e-001
-7.257329573808212e-001 -7.578690322037538e-001
-1.000000000000000e+000 -6.432835820895522e-001
-6.666897843834958e-001 -8.847441807556059e-001
-9.489776699456591e-001 -6.440929718343290e-001
-8.983441308502030e-001 -6.450092102303145e-001
-7.765154200192678e-001 -7.044805541116098e-001
-6.736868090159773e-001 -8.106711247610012e-001
-8.137414209314467e-001 -6.757248747480343e-001
-8.351149914609642e-001 -6.711207397093792e-001
-6.858541701954675e-001 -7.853920484133381e-001
-7.373516322736835e-001 -7.326195792478941e-001
-6.402985074626866e-001 -1.000000000000000e+000
-6.414043436995051e-001 -9.457875453395830e-001
-6.614231688603794e-001 -8.361798361514396e-001
-9.743315379981009e-001 -6.288625824075321e-001
-6.978166136883774e-001 -7.602029227533519e-001
-8.491572257012576e-001 -6.537121710194363e-001
-9.235962216061212e-001 -6.300083180661323e-001
-6.493352690296884e-001 -8.623290636885953e-001
-7.871826817109501e-001 -6.793674389193631e-001
-7.487096519573013e-001 -7.074449892046838e-001
-6.378467949582863e-001 -8.900493220596273e-001
-8.694058141294170e-001 -6.296250909164931e-001
-6.255567342469754e-001 -9.732345714529105e-001
-7.095462391256619e-001 -7.350824836773935e-001
-6.249900369462253e-001 -9.187356214890298e-001
-1.000000000000000e+000 -6.135278154681139e-001
-6.579253836681898e-001 -7.875635933699699e-001
-8.236882796140778e-001 -6.526182530908895e-001
-9.485682213483400e-001 -6.146829817363826e-001
-6.455677763034883e-001 -8.128967659927179e-001
-8.988792676717360e-001 -6.159824884292749e-001
-6.700273145432835e-001 -7.624225268461110e-001
-7.598191411935877e-001 -6.824367902438020e-001
-7.977493100926253e-001 -6.549101281203064e-001
-7.210538218614474e-001 -7.100548956210587e-001
-6.328993605764790e-001 -8.386623212180636e-001
-6.103527815468115e-001 -1.000000000000000e+000
-6.102226590363986e-001 -9.466298760942640e-001
-8.370600903403490e-001 -6.293905273659952e-001
-6.818947215756354e-001 -7.373907537023450e-001
-6.197778124146606e-001 -8.653727050294596e-001
-9.740522490743907e-001 -5.991483014732039e-001
-9.229886065253723e-001 -6.011953006555381e-001
-6.071111894820408e-001 -8.931829150598353e-001
-7.708013028897001e-001 -6.576941339258280e-001
-7.323713466632729e-001 -6.851559509455519e-001
-8.778497065126604e-001 -5.983715384782343e-001
-6.300347612626955e-001 -7.895708395486943e-001
-6.935479281263240e-001 -7.124610413392722e-001
-6.423256247163435e-001 -7.645221386362410e-001
-5.953245417018573e-001 -9.735534684826316e-001
-8.497235585133436e-001 -6.034970665296185e-001
-8.091560911552067e-001 -6.307933993874150e-001
-5.942892064356502e-001 -9.207960177669435e-001
-6.173716809478959e-001 -8.148168166238164e-001
-1.000000000000000e+000 -5.837675260063317e-001
-9.475669263383099e-001 -5.847869394321379e-001
-6.543559139337182e-001 -7.395869406107902e-001
-9.011207834656190e-001 -5.916361953675724e-001
-6.039193345352437e-001 -8.404739734615833e-001
-7.435652249872634e-001 -6.604093805632305e-001
-7.819465191046527e-001 -6.331654715956238e-001
-7.050181181045327e-001 -6.876504377117841e-001
-5.876832296410044e-001 -8.676229006699288e-001
-5.804115784712800e-001 -1.000000000000000e+000
-5.801628838949178e-001 -9.475089436282351e-001
-6.661642933125974e-001 -7.147432994271675e-001
-8.211084079707603e-001 -6.060830916082384e-001
-9.738985109904926e-001 -5.692413706736927e-001
-5.783472228117222e-001 -8.965483866420865e-001
-6.147106988229231e-001 -7.664799042495795e-001
-8.602855975016470e-001 -5.768688442215507e-001
-9.182701808098329e-001 -5.699818762425896e-001
-6.022651308983243e-001 -7.913386848586215e-001
-7.547492529278285e-001 -6.357909007245108e-001
-8.876190494354351e-001 -5.725057280924335e-001
-7.163536740011694e-001 -6.629667080727977e-001
-6.269037034108038e-001 -7.416852068215668e-001
-6.777830498726020e-001 -6.900020802515354e-001
-7.933655616023674e-001 -6.085661291489550e-001
-5.894838319993652e-001 -8.161945494798114e-001
-5.654531734291458e-001 -9.738567917961634e-001
-8.325185740937256e-001 -5.806177502662074e-001
-5.652291061113616e-001 -9.221359674397857e-001
-5.762742360897463e-001 -8.404560853494996e-001
-1.000000000000000e+000 -5.540027137042061e-001
-6.388690424390209e-001 -7.169485939415580e-001
-9.476643572167373e-001 -5.543584840513943e-001
-5.644578534179778e-001 -8.781652365622964e-001
-7.276127376875525e-001 -6.383902158050345e-001
-7.660033192075398e-001 -6.112043869150746e-001
-6.892525049969350e-001 -6.653814459716093e-001
-5.872051747733917e-001 -7.683097226855984e-001
-6.506281315385499e-001 -6.922724006505258e-001
-5.504748982360923e-001 -1.000000000000000e+000
-5.507299573981688e-001 -9.480212305503578e-001
-8.047559397233096e-001 -5.836767864545818e-001
-8.705510661136086e-001 -5.510848585678551e-001
-5.995244136844698e-001 -7.436893342591867e-001
-8.974824683382731e-001 -5.468739799137416e-001
-5.639273740074443e-001 -8.595185627770414e-001
-5.514475263453115e-001 -8.975816985432138e-001
-9.741119077932749e-001 -5.393088834912372e-001
-5.747429873269444e-001 -7.929534619272071e-001
-8.432478113290537e-001 -5.550504620018751e-001
-9.233646685428134e-001 -5.382460412116814e-001
-6.116444266332315e-001 -7.191051100884387e-001
-7.388398498281514e-001 -6.138733018666397e-001
-5.622421620079304e-001 -8.175103346466145e-001
-7.006086050986894e-001 -6.408803834297834e-001
-6.622319045429239e-001 -6.676898723235859e-001
-7.772687257940011e-001 -5.865489171769740e-001
-5.357514342597688e-001 -9.740218314354783e-001
-5.365588786542433e-001 -9.224530580730653e-001
-8.157966249242000e-001 -5.586119285901288e-001
-6.235181139728202e-001 -6.945243613295297e-001
-5.502695242494684e-001 -8.418652782024122e-001
-1.000000000000000e+000 -5.242333785617366e-001
-5.408322855621998e-001 -8.698745692813503e-001
-9.487083361258546e-001 -5.243972110846967e-001
-5.721807908066375e-001 -7.456041407351858e-001
-5.597887901317447e-001 -7.700906338176616e-001
-7.118715990269795e-001 -6.164709367243838e-001
-8.807222389802914e-001 -5.254656012178982e-001
-7.500322812305726e-001 -5.893704799512073e-001
-6.737231257246089e-001 -6.432456270376207e-001
-8.535634282585692e-001 -5.295996541031527e-001
-6.352055315514938e-001 -6.699480306190826e-001
-5.844705825572670e-001 -7.212008183431129e-001
-9.040611956153182e-001 -5.236797476322227e-001
-5.205427408412484e-001 -1.000000000000000e+000
-7.883844600508668e-001 -5.618321291344022e-001
-5.213529848390758e-001 -9.481752548656921e-001
-5.474025708675671e-001 -7.946601018638981e-001
-5.232120384640835e-001 -8.965943610778243e-001
-8.263819021126851e-001 -5.336009912311344e-001
-9.743540097474422e-001 -5.095176359879859e-001
-5.964854475557964e-001 -6.968206088787144e-001
-5.351203592166837e-001 -8.194042956995312e-001
-9.237705779248815e-001 -5.098979772613981e-001
-7.230418992897617e-001 -5.921199106964243e-001
-6.850920786086535e-001 -6.189468392412257e-001
-5.229706453721638e-001 -8.449331107601147e-001
-6.468442681330351e-001 -6.454877399570585e-001
-7.611281567359369e-001 -5.648827038143011e-001
-5.447842143224513e-001 -7.474530185758402e-001
-5.060170162193200e-001 -9.740753928983459e-001
-6.081235829370365e-001 -6.722869139782343e-001
-7.992033742058101e-001 -5.371730382346450e-001
-5.073621753449865e-001 -9.223486169429256e-001
-5.572502073308818e-001 -7.231572307284139e-001
-8.635144728851381e-001 -5.037012883975462e-001
-8.946078940888645e-001 -4.976709551841077e-001
-5.092429482518169e-001 -8.709497999364563e-001
-1.000000000000000e+000 -4.944595205789233e-001
-5.323748927269351e-001 -7.719105980674218e-001
-9.488202004794384e-001 -4.948451409272128e-001
-8.363569127720294e-001 -5.087385829102796e-001
-6.963060547258415e-001 -5.947563496169694e-001
-7.341007692588805e-001 -5.678228479327728e-001
-5.695680102666894e-001 -6.990688532076071e-001
-6.584278432260792e-001 -6.212623076228937e-001
-6.197421885131273e-001 -6.476463250227491e-001
-5.200144960505154e-001 -7.965219015466115e-001
-7.720415988877490e-001 -5.404725730211417e-001
-4.906151062867481e-001 -1.000000000000000e+000
-4.917070407533176e-001 -9.481603630515552e-001
-5.075412039767907e-001 -8.214042835399522e-001
-8.096007604071582e-001 -5.127188033377087e-001
-4.935938931996782e-001 -8.965890347578706e-001
-5.812903981747940e-001 -6.749630102621058e-001
-9.744014185926607e-001 -4.797596389986281e-001
-9.227129760534089e-001 -4.802814446947215e-001
-4.944196457938261e-001 -8.465118265689645e-001
-5.297827462178469e-001 -7.249312255958418e-001
-7.073543663299878e-001 -5.706452064315783e-001
-6.698047984883838e-001 -5.972472562343979e-001
-5.172690450638870e-001 -7.493145565110931e-001
-7.450153867876260e-001 -5.436141978480896e-001
-8.701424663855897e-001 -4.763735248612841e-001
-6.316731411952122e-001 -6.233339441876926e-001
-8.449493378933007e-001 -4.843450272343525e-001
-5.921573692925428e-001 -6.500256182193684e-001
-5.425279063860279e-001 -7.009109142087114e-001
-4.761457316520050e-001 -9.740736882288953e-001
-7.826930720136510e-001 -5.162318895183762e-001
-4.775980308860256e-001 -9.221642418886243e-001
-5.049118026566305e-001 -7.737879649721650e-001
-4.800007565034244e-001 -8.714346669623456e-001
-8.966509474110844e-001 -4.640405948033137e-001
-1.000000000000000e+000 -4.646811397557664e-001
-8.194056047300055e-001 -4.886867672478294e-001
-9.487579958187888e-001 -4.650157182358559e-001
-5.550017432784069e-001 -6.775455064950423e-001
-4.925186702790516e-001 -7.983691577013428e-001
-6.809073746959352e-001 -5.733404307590373e-001
-7.182407956885927e-001 -5.466225154026215e-001
-6.434836055476369e-001 -5.995201179635462e-001
-4.798020614982817e-001 -8.230406860722023e-001
-7.557495745584809e-001 -5.195373308550751e-001
-6.041877788202679e-001 -6.249827129023284e-001
-4.606919945725916e-001 -1.000000000000000e+000
-4.617180901297684e-001 -9.480518315085292e-001
-5.020261440029722e-001 -7.268087692925791e-001
-5.659027841372529e-001 -6.541893435904410e-001
-7.930294092962765e-001 -4.922581412217923e-001
-4.638116855120648e-001 -8.960567705710211e-001
-5.147251130801836e-001 -7.021310046119948e-001
-8.507673178145021e-001 -4.630516625223285e-001
-9.743795818527028e-001 -4.499305715273005e-001
-4.664505458124037e-001 -8.475041500390024e-001
-9.232730808405942e-001 -4.499542163841119e-001
-4.897176588463797e-001 -7.512780535162915e-001
-8.696184465332640e-001 -4.453279061751095e-001
-6.917816889811427e-001 -5.495019703303956e-001
-6.547641250796270e-001 -5.759105106094510e-001
-8.286992096759622e-001 -4.656197673012237e-001
-7.289626182260630e-001 -5.227069910851337e-001
-5.285067185431997e-001 -6.787423043330590e-001
-6.172497234903543e-001 -6.012985733005427e-001
-4.774776628453578e-001 -7.756675827016526e-001
-5.732449801054694e-001 -6.262145122736802e-001
-7.662835980037187e-001 -4.956159426163407e-001
-4.461338004902334e-001 -9.740648025254613e-001
-4.472367981792063e-001 -9.216094825383608e-001
-4.650776027980907e-001 -8.000979724002207e-001
-4.520287739047505e-001 -8.709521325695179e-001
-8.031258984232531e-001 -4.686738259023475e-001
-5.416642526877156e-001 -6.574616612555026e-001
-1.000000000000000e+000 -4.348982360922657e-001
-8.990018166428758e-001 -4.343641043725230e-001
-9.487453006955654e-001 -4.350960223094848e-001
-4.523625342445226e-001 -8.245221972027900e-001
-6.656457196092737e-001 -5.522899695574829e-001
-4.863813370973444e-001 -7.042928228598532e-001
-7.024695355642191e-001 -5.257483493307397e-001
-6.290247367617491e-001 -5.783157980254068e-001
-4.743365075115058e-001 -7.290482808055931e-001
-7.395147021033884e-001 -4.988762552023165e-001
-5.908033720296589e-001 -6.015054019830015e-001
-8.398043496866570e-001 -4.435621416304927e-001
-4.307734056987789e-001 -1.000000000000000e+000
-4.314708872198945e-001 -9.479920481880981e-001
-4.989943953610609e-001 -6.771153151550936e-001
-5.514660052208137e-001 -6.389556628735578e-001
-7.766558489194068e-001 -4.718514722426336e-001
-4.321368228334253e-001 -8.933021562943192e-001
-4.623378988246611e-001 -7.532870009655825e-001
-4.396169164241379e-001 -8.484903958981659e-001
-9.742880876005598e-001 -4.199867562239610e-001
-9.234258823213838e-001 -4.205772357108253e-001
-8.787675832772867e-001 -4.157852392507712e-001
-8.134601041566235e-001 -4.454487942702308e-001
-4.502142273415526e-001 -7.774538035497947e-001
-5.177181770176805e-001 -6.572130930492140e-001
-6.763109409094592e-001 -5.286822932188895e-001
-6.398435734772282e-001 -5.550795678122585e-001
-7.129705557334169e-001 -5.020514320154775e-001
-8.515204962417511e-001 -4.198109817961762e-001
-6.042662563008502e-001 -5.803265452716287e-001
-4.378157716593869e-001 -8.017079527540153e-001
-5.625055287688447e-001 -5.950330858853857e-001
-7.499277093890808e-001 -4.750532644565854e-001
-4.160402873142315e-001 -9.740889218234522e-001
-5.452516081801578e-001 -6.187996398093252e-001
-4.166322110094156e-001 -9.216605333621771e-001
-4.586788368416168e-001 -7.074095164659214e-001
-7.870167253013989e-001 -4.482038922092980e-001
-5.308135453240351e-001 -6.380211765407364e-001
-4.298231719969196e-001 -8.685838963584821e-001
-4.696844837912967e-001 -6.831954835958026e-001
-1.000000000000000e+000 -4.051108095884213e-001
-9.481706159819492e-001 -4.047822866122114e-001
-4.250520478754156e-001 -8.262718147337286e-001
-9.018571586753220e-001 -4.100634383437146e-001
-4.471163252439972e-001 -7.313315225746725e-001
-6.504236706036099e-001 -5.315960314505740e-001
-6.867834326248512e-001 -5.051337070714026e-001
-6.145855438260436e-001 -5.580585625930049e-001
-8.242014007952370e-001 -4.219589879656496e-001
-7.232800008523763e-001 -4.782773674283254e-001
-4.977988912534632e-001 -6.541500101407753e-001
-5.832502903761008e-001 -5.812491621339656e-001
-4.353033869532659e-001 -7.551505464463792e-001
-4.008593396653098e-001 -1.000000000000000e+000
-4.011408470882117e-001 -9.480591026782160e-001
-7.603141490095973e-001 -4.511760876067653e-001
-8.616501553928594e-001 -3.942435080078419e-001
-4.018400517866725e-001 -8.966575346684668e-001
-4.232251653696396e-001 -7.790117382541526e-001
-4.780646437462674e-001 -6.598154759232914e-001
-4.135136578711838e-001 -8.769261085997304e-001
-4.117020259489935e-001 -8.528216037639067e-001
-7.974862845018605e-001 -4.245025463200771e-001
-9.743742043103215e-001 -3.898870911146904e-001
-9.192564168671259e-001 -3.886883666797004e-001
-5.081603159115522e-001 -6.375191026901336e-001
-5.329931216596706e-001 -5.964584413103865e-001
-8.885936129495206e-001 -3.903801071084599e-001
-6.609257829288201e-001 -5.081273192801686e-001
-6.246755228170846e-001 -5.347013382739286e-001
-5.201918960397910e-001 -6.179199841642722e-001
-4.107918145903642e-001 -8.029755971174778e-001
-6.969891947913016e-001 -4.815394204215220e-001
-4.430234827828950e-001 -6.866283995060978e-001
-5.906933287959202e-001 -5.617249084151918e-001
-8.347171283008025e-001 -3.976035027479654e-001
-4.319429110351592e-001 -7.099226388031744e-001
-7.334779101023469e-001 -4.542283078775100e-001
-5.679926795100688e-001 -5.677092912813358e-001
-3.859361950649648e-001 -9.741529131830412e-001
-3.860718321473763e-001 -9.217065447871873e-001
-7.707959969299547e-001 -4.272397554323006e-001
-5.439209980553573e-001 -5.731827716963126e-001
-4.204503310421714e-001 -7.332910913132270e-001
-4.532759748386037e-001 -6.636849858752701e-001
-1.000000000000000e+000 -3.753188602442332e-001
-3.978606325666492e-001 -8.269869278330807e-001
-9.488271347511175e-001 -3.739753749745184e-001
-4.859599103902992e-001 -6.387594664397861e-001
-4.086668759447367e-001 -7.567273361047687e-001
-8.079363119269619e-001 -4.004810289020947e-001
-6.351711414378156e-001 -5.111036061566558e-001
-6.711760624333518e-001 -4.847482349840556e-001
-5.990061085014599e-001 -5.385371291729282e-001
-3.921088402033199e-001 -8.727339223726491e-001
-7.068651447830144e-001 -4.575714059643357e-001
-8.713693950421849e-001 -3.686632295968713e-001
-3.965823521945053e-001 -7.802361303472184e-001
-8.447056254993490e-001 -3.725938855584666e-001
-8.984294128897700e-001 -3.640870686091982e-001
-3.709497964721845e-001 -1.000000000000000e+000
-7.438822042386409e-001 -4.299421625053130e-001
-3.708329291566285e-001 -9.482086807394817e-001
-4.962748974538237e-001 -6.186614357893336e-001
-5.075036659121555e-001 -5.977186343799793e-001
-3.707358584358603e-001 -8.928872779656801e-001
-7.813231233192242e-001 -4.032214762319066e-001
-4.628311986001164e-001 -6.416042150986034e-001
-3.839329447313047e-001 -8.492817501846498e-001
-9.749396531204712e-001 -3.598542443242302e-001
-5.185949424117989e-001 -5.758192731177014e-001
-4.170916867613015e-001 -6.890236773269102e-001
-9.253022153828354e-001 -3.561041720860045e-001
-5.750651022685577e-001 -5.446452353362736e-001
-3.841844948109438e-001 -8.037210368288009e-001
-4.279882883755093e-001 -6.663938406030463e-001
-6.456998296748481e-001 -4.877758098455737e-001
-4.058112611174703e-001 -7.118861875862236e-001
-6.089316840370481e-001 -5.142570247392404e-001
-5.525777829465485e-001 -5.503946552811290e-001
-6.809348539036502e-001 -4.612316665379499e-001
-8.181366389459152e-001 -3.760187240232568e-001
-3.942369825628944e-001 -7.348918715200483e-001
-7.165512744797327e-001 -4.327105403525908e-001
-3.558728601895171e-001 -9.742386372656505e-001
-7.546428224766274e-001 -4.057212920162991e-001
-3.554455482071129e-001 -9.220141352952306e-001
-3.823984917288112e-001 -7.580119995186481e-001
-4.726801278892101e-001 -6.203635463000806e-001
-4.384813289620202e-001 -6.441723594318067e-001
-5.289829707885488e-001 -5.534870607533927e-001
-1.000000000000000e+000 -3.455223880597014e-001
-3.715582790348684e-001 -8.267476642758976e-001
-8.542546480857766e-001 -3.471866229491828e-001
-8.803847184915899e-001 -3.426582787016823e-001
-9.508937907426279e-001 -3.439354364257952e-001
-7.916957468172924e-001 -3.790399134365327e-001
-3.711307639448075e-001 -8.672136278191800e-001
-5.799600045025814e-001 -5.181363171515361e-001
-6.202139305885007e-001 -4.905638459009545e-001
-4.831841142454216e-001 -5.992771004613620e-001
-6.557085968299270e-001 -4.647005316462733e-001
-3.703178135121381e-001 -7.811982716734488e-001
-9.055011895145033e-001 -3.371188325915116e-001
-4.938995380987130e-001 -5.778270215312904e-001
-6.899217017667070e-001 -4.369037269817290e-001
-8.279851971046863e-001 -3.511527021730899e-001
-3.410447761194030e-001 -1.000000000000000e+000
-7.274102731881916e-001 -4.077692701511632e-001
-3.406550504179466e-001 -9.484429738517669e-001
-4.027928138538319e-001 -6.684478716944072e-001
-3.915549070511233e-001 -6.908650047189502e-001
-7.653629733415771e-001 -3.816524032000297e-001
-3.391661988487214e-001 -8.971221774921441e-001
-5.600986003767354e-001 -5.314730664022981e-001
-4.488024212032962e-001 -6.224489349042228e-001
-3.800692975614872e-001 -7.134603851660786e-001
-9.755804943937010e-001 -3.301493283989986e-001
-5.044784118989775e-001 -5.559398543457912e-001
-3.594381402773643e-001 -8.488472886080883e-001
-3.496773895794507e-001 -8.718615375275717e-001
-4.137906571130910e-001 -6.462706678922658e-001
-3.580961075503853e-001 -8.043294709756325e-001
-9.288572755802824e-001 -3.279725117333286e-001
-5.394653062028057e-001 -5.317665059599214e-001
-3.683478747235951e-001 -7.362113518027767e-001
-6.308314003039523e-001 -4.676566659711351e-001
-5.942822246168493e-001 -4.928773289998556e-001
-8.017729591324326e-001 -3.546174521241537e-001
-6.648677818006905e-001 -4.416454065730017e-001
-8.634173689726334e-001 -3.213328524510879e-001
-4.592181135524456e-001 -6.010567231549908e-001
-6.976135351347823e-001 -4.091021554337955e-001
-3.564196351875578e-001 -7.591010776439019e-001
-3.258548903404466e-001 -9.742559258416357e-001
-7.390239579246703e-001 -3.836650968922994e-001
-3.253619982026890e-001 -9.228646611887948e-001
-8.891015198681180e-001 -3.166153223330067e-001
-8.374464306172361e-001 -3.258778644753537e-001
-4.245983999184129e-001 -6.244038943158664e-001
-4.697290086616457e-001 -5.797045443128476e-001
-1.000000000000000e+000 -3.157213930348257e-001
-5.150522187367160e-001 -5.335627345264957e-001
-7.757076240249309e-001 -3.575727806553342e-001
-3.460335754117628e-001 -8.272916516928409e-001
-9.519279787859638e-001 -3.149373808517677e-001
-5.533321982289309e-001 -5.124110472144663e-001
-3.777719126869782e-001 -6.701458316464929e-001
-4.801779680707777e-001 -5.581998186523509e-001
-3.443561412704362e-001 -7.820906521351146e-001
-6.060306753603816e-001 -4.700573594387576e-001
-5.686665732063899e-001 -4.929688824418960e-001
-9.108018107625714e-001 -3.143380425019024e-001
-6.405731487575891e-001 -4.451576583544657e-001
-3.662884665152617e-001 -6.923799523545188e-001
-3.890567626475643e-001 -6.480453221995816e-001
-3.232891239532115e-001 -8.740792598325240e-001
-8.114979771130243e-001 -3.298944644619066e-001
-6.725305975494554e-001 -4.186604100096233e-001
-3.345841369576987e-001 -8.503828646437704e-001
-7.126081542103836e-001 -3.846679356462300e-001
-3.111442786069651e-001 -1.000000000000000e+000
-3.545662940057756e-001 -7.147659737948638e-001
-3.105963025924892e-001 -9.483526183849338e-001
-4.352824917697477e-001 -6.028417533222956e-001
-7.498359821558539e-001 -3.599246341553852e-001
-3.106632692800829e-001 -8.981252595969084e-001
-9.758216749073673e-001 -3.006198859886307e-001
-3.426468323398248e-001 -7.373416813464088e-001
-4.002254790772223e-001 -6.261350032812117e-001
-4.904521928358131e-001 -5.364527117777166e-001
-5.267545643536593e-001 -5.091011969013259e-001
-3.323051914602249e-001 -8.051411434717419e-001
-8.725059450013436e-001 -2.946990105239686e-001
-8.464323253584555e-001 -3.001087856399446e-001
-9.287536439661243e-001 -3.006174009306031e-001
-7.856600446417237e-001 -3.333417058330368e-001
-4.458608016755156e-001 -5.814774945094150e-001
-6.164653684259581e-001 -4.479010926428710e-001
-5.814522204896334e-001 -4.715558006891695e-001
-3.306101401991164e-001 -7.601025461171047e-001
-6.493399292854801e-001 -4.230280419429131e-001
-4.562956886449268e-001 -5.601782160042950e-001
-9.017283154256921e-001 -2.886898190941423e-001
-6.761565827061281e-001 -3.990842639920674e-001
-6.878503482728688e-001 -3.832964388747557e-001
-2.957857236937304e-001 -9.740829235443563e-001
-8.207831418337422e-001 -3.047982158839783e-001